 Gaussian 09, Revision A.02,

 ----------------------------------------------------------------------
 #p freq=hinderedrotor m052x/cc-pvtz scf=tight integral=(grid=ultrafine
 ) scrf=(smd,solvent=chloroform)
 ----------------------------------------------------------------------

 ------------------
 Gibbs free energy.
 ------------------
 Symbolic Z-matrix:
 Charge =  0 Multiplicity = 1

 SCF Done:  E(RM052X) =  -357.040902394     A.U. after   10 cycles

  Exact polarizability:  59.046   2.381  58.576   0.000   0.000  57.367
 Approx polarizability:  53.465  -1.171  55.307   0.000   0.000  52.462

                     1                      2                      3
                     A                      A                      A
 Frequencies --    90.3218               206.9645               242.3183
 Red. masses --     3.4921                 1.2493                 1.5533
 Frc consts  --     0.0168                 0.0315                 0.0537
 IR Inten    --     7.5036                 4.7514                 0.5076

                     4                      5                      6
                     A                      A                      A
 Frequencies --   250.7492               312.1286               378.6991
 Red. masses --     2.6371                 1.5368                 4.6712
 Frc consts  --     0.0977                 0.0882                 0.3947
 IR Inten    --    10.6261                 0.3616                 7.5580

                     7                      8                      9
                     A                      A                      A
 Frequencies --   416.8643               513.2397               585.0502
 Red. masses --     3.0328                 4.5404                 2.1900
 Frc consts  --     0.3105                 0.7047                 0.4417
 IR Inten    --    14.3772                 5.2921                 0.5017

                    10                     11                     12
                     A                      A                      A
 Frequencies --   830.8375               906.7289               950.0874
 Red. masses --     2.5224                 2.0809                 1.8797
 Frc consts  --     1.0259                 1.0080                 0.9997
 IR Inten    --     0.1161                49.2249                 4.6638

                    13                     14                     15
                     A                      A                      A
 Frequencies --  1030.1647              1048.9774              1121.6792
 Red. masses --     1.4323                 2.1409                 2.2644
 Frc consts  --     0.8955                 1.3879                 1.6785
 IR Inten    --     9.4939               112.4827               189.0021

                    16                     17                     18
                     A                      A                      A
 Frequencies --  1121.8620              1183.5498              1228.3653
 Red. masses --     2.6138                 2.1484                 1.6973
 Frc consts  --     1.9382                 1.7731                 1.5089
 IR Inten    --     0.4264                 2.1510                 8.6792

                    19                     20                     21
                     A                      A                      A
 Frequencies --  1356.9773              1393.1730              1405.0332
 Red. masses --     1.1268                 1.2628                 1.2244
 Frc consts  --     1.2224                 1.4441                 1.4242
 IR Inten    --     8.7348                 0.1241                 3.0753

                    22                     23                     24
                     A                      A                      A
 Frequencies --  1408.0334              1428.6627              1459.9663
 Red. masses --     1.6650                 1.4326                 1.5308
 Frc consts  --     1.9448                 1.7228                 1.9225
 IR Inten    --     5.0817                40.6590                38.7304

                    25                     26                     27
                     A                      A                      A
 Frequencies --  1490.6755              1494.5746              1500.7426
 Red. masses --     1.0436                 1.0929                 1.0588
 Frc consts  --     1.3663                 1.4384                 1.4050
 IR Inten    --    11.8334                 5.4926                 7.3659

                    28                     29                     30
                     A                      A                      A
 Frequencies --  1518.7173              3105.6265              3108.3066
 Red. masses --     1.0866                 1.0349                 1.0350
 Frc consts  --     1.4766                 5.8809                 5.8915
 IR Inten    --     1.4442                 4.6231                 7.5793

                    31                     32                     33
                     A                      A                      A
 Frequencies --  3144.0380              3153.1689              3178.7915
 Red. masses --     1.0862                 1.0880                 1.1021
 Frc consts  --     6.3260                 6.3733                 6.5615
 IR Inten    --     9.7694                28.5924                21.4161

                    34                     35                     36
                     A                      A                      A
 Frequencies --  3178.9785              3181.4096              3187.2889
 Red. masses --     1.1025                 1.1034                 1.1027
 Frc consts  --     6.5645                 6.5797                 6.6001
 IR Inten    --     0.1036                31.3706                22.7248

 - Thermochemistry -
 -------------------
 Temperature   298.150 Kelvin.  Pressure   1.00000 Atm.
 Atom     1 has atomic number  6 and mass  12.00000

 Molecular mass:    94.05941 amu.
 Principal axes and moments of inertia in atomic units:
                           1         2         3
     Eigenvalues --   393.01383 673.69636 763.86022
           X            0.98670   0.16256   0.00000
           Y           -0.16256   0.98670   0.00000
           Z            0.00000   0.00000   1.00000
 This molecule is an asymmetric top.
 Rotational symmetry number  1.
 Rotational temperatures (Kelvin)      0.22038     0.12857     0.11339
 Rotational constants (GHZ):           4.59206     2.67886     2.36266
 Zero-point vibrational energy     311703.5 (Joules/Mol)
                                   74.49892 (Kcal/Mol)
 Warning -- explicit consideration of   9 degrees of freedom as
           vibrations may cause significant error
 Identified internal rotation modes:
    1   2   3
 Vibrational temperatures:    129.95   297.78   348.64   360.77   449.08
          (Kelvin)            544.86   599.77   738.44   841.76  1195.39
                             1304.58  1366.96  1482.18  1509.24  1613.84
                             1614.11  1702.86  1767.34  1952.39  2004.46
                             2021.53  2025.84  2055.52  2100.56  2144.75
                             2150.36  2159.23  2185.09  4468.30  4472.15
                             4523.56  4536.70  4573.57  4573.84  4577.33
                             4585.79

 Zero-point correction=                           0.118722 (Hartree/Particle)
 Thermal correction to Energy=                    0.125624
 Thermal correction to Enthalpy=                  0.126568
 Thermal correction to Gibbs Free Energy=         0.088123
 Sum of electronic and zero-point Energies=           -356.922181
 Sum of electronic and thermal Energies=              -356.915278
 Sum of electronic and thermal Enthalpies=            -356.914334
 Sum of electronic and thermal Free Energies=         -356.952780

                     E (Thermal)             CV                S
                      KCal/Mol        Cal/Mol-Kelvin    Cal/Mol-Kelvin
 Total                   78.830             24.214             80.916
 Corrected for
 internal rot.           78.924             25.043             82.943
 Electronic               0.000              0.000              0.000
 Translational            0.889              2.981             39.536
 Rotational               0.889              2.981             26.806
 Vibrational             77.053             18.252             14.575
 Vibration     1          0.602              1.956              3.653
 Vibration     2          0.641              1.830              2.070
 Vibration     3          0.659              1.775              1.786
 Vibration     4          0.663              1.762              1.725
 Vibration     5          0.700              1.651              1.351
 Vibration     6          0.749              1.516              1.044
 Vibration     7          0.780              1.434              0.903
 Vibration     8          0.868              1.221              0.626
 Vibration     9          0.942              1.064              0.476

 Normal termination of Gaussian 09 at Sun Jan 19 14:19:36 2014.
 Gaussian 09:  EM64L-G09RevA.02 11-Jun-2009

 ----------------------------------------------------------------------
 #p nmr=(giao,spinspin,mixed) m052x/cc-pvtz scf=tight integral=(grid=ul
 trafine) scrf=(smd,solvent=chloroform)
 ----------------------------------------------------------------------

 ------------
 J-couplings.
 ------------
 Symbolic Z-matrix:
 Charge =  0 Multiplicity = 1

 SCF Done:  E(RM052X) =  -357.051671715     A.U. after   10 cycles
 Normal termination of Gaussian 09 at Sun Jan 19 16:13:37 2014.

 ----------------------------------------------------------------------
 #P Geom=AllCheck Guess=TCheck SCRF=Check GenChk RM052X/ChkBas NMR=Read
 FC IOp(3/6=22)
 ----------------------------------------------------------------------

 J-couplings.
 ------------
 Z-Matrix taken from the checkpoint file:
 /scratch/ik1r11/Gau-30738.chk
 Charge =  0 Multiplicity = 1

                         Standard orientation:
 ---------------------------------------------------------------------
 Center     Atomic      Atomic             Coordinates (Angstroms)
 Number     Number       Type             X           Y           Z
 ---------------------------------------------------------------------
      1          6           0       -0.724057   -0.227087   -0.399868
      2          9           0       -1.496145    0.943360   -0.517785
      3          1           0       -0.901878   -0.810198   -1.299815
      4          6           0        0.724058    0.227077   -0.399864
      5          9           0        1.496161   -0.943361   -0.517771
      6          1           0        0.901878    0.810185   -1.299814
      7          6           0        1.159942    0.974615    0.828223
      8          1           0        0.511528    1.834858    0.980391
      9          1           0        1.112328    0.334269    1.704880
     10          1           0        2.180549    1.326310    0.704401
     11          6           0       -1.159959   -0.974607    0.828222
     12          1           0       -0.511571   -1.834872    0.980388
     13          1           0       -1.112315   -0.334260    1.704876
     14          1           0       -2.180577   -1.326268    0.704412
 ---------------------------------------------------------------------

 SCF Done:  E(RM052X) =  -357.040902696     A.U. after    8 cycles

  1  C    Isotropic =    93.6177   Anisotropy =    90.3084

  2  F    Isotropic =   406.5007   Anisotropy =    51.8448

  3  H    Isotropic =    26.5812   Anisotropy =     4.0838

  4  C    Isotropic =    93.6175   Anisotropy =    90.3086

  5  F    Isotropic =   406.5017   Anisotropy =    51.8447

  6  H    Isotropic =    26.5812   Anisotropy =     4.0838

  7  C    Isotropic =   177.7225   Anisotropy =    21.4809

  8  H    Isotropic =    30.4516   Anisotropy =     9.0718

  9  H    Isotropic =    30.3115   Anisotropy =     7.0021

 10  H    Isotropic =    30.1521   Anisotropy =    10.1770

 11  C    Isotropic =   177.7226   Anisotropy =    21.4811

 12  H    Isotropic =    30.4516   Anisotropy =     9.0719

 13  H    Isotropic =    30.3115   Anisotropy =     7.0020

 14  H    Isotropic =    30.1521   Anisotropy =    10.1770

 The electronic state is 1-A.
 Alpha  occ. eigenvalues --  -25.27686 -25.27686 -10.64584 -10.64542 -10.55309
 Alpha  occ. eigenvalues --  -10.55309  -1.33715  -1.33086  -0.91505  -0.84536
 Alpha  occ. eigenvalues --   -0.76620  -0.68309  -0.60998  -0.60692  -0.59420
 Alpha  occ. eigenvalues --   -0.55048  -0.53423  -0.50159  -0.49133  -0.46912
 Alpha  occ. eigenvalues --   -0.45857  -0.45140  -0.43778  -0.39801  -0.39019
 Alpha virt. eigenvalues --    0.09358   0.11468   0.12132   0.12902   0.16118
 Alpha virt. eigenvalues --    0.16587   0.17029   0.17951   0.18128   0.22009
 Alpha virt. eigenvalues --    0.24697   0.24807   0.28364   0.29886   0.32274

 Mulliken atomic charges:
              1
     1  C    0.140146
     2  F   -0.281116
     3  H    0.113310
     4  C    0.140149
     5  F   -0.281116
     6  H    0.113309
     7  C   -0.329219
     8  H    0.119522
     9  H    0.117397
    10  H    0.119958
    11  C   -0.329216
    12  H    0.119521
    13  H    0.117396
    14  H    0.119959
 Sum of Mulliken atomic charges =   0.00000

 Dipole moment (field-independent basis, Debye):
    X=              0.0000    Y=              0.0000    Z=              0.7270  Tot=              0.7270
 Quadrupole moment (field-independent basis, Debye-Ang):
   XX=            -39.6988   YY=            -37.0762   ZZ=            -34.5381
   XY=              5.8977   XZ=              0.0000   YZ=              0.0000

 Normal termination of Gaussian 09 at Sun Jan 19 17:20:18 2014.
