 Gaussian 09, Revision C.01,
 Gaussian 09:  EM64L-G09RevC.01 23-Sep-2011

 ----------------------------------------------------------------------
 #p nmr=(giao,spinspin,mixed) b3lyp/cc-pvdz scrf=(smd,solvent=chlorofor
 m) output=pickett geom=connectivity
 ----------------------------------------------------------------------

 (Enter /home/dbchem/mapete/chem/g09-C.01/G09-C.01-ifort-static/g09/l101.exe)
 -----------
 Diacetylene
 -----------
 Charge =  0 Multiplicity = 1

 SCF Done:  E(RB3LYP) =  -153.500855076     A.U. after    9 cycles
 Normal termination of Gaussian 09 at Mon Jul 28 15:09:10 2014.

 ----------------------------------------------------------------------
 #P Geom=AllCheck Guess=TCheck SCRF=Check GenChk RB3LYP/ChkBas NMR=Read
 FC IOp(3/6=22)
 ----------------------------------------------------------------------

 Structure from the checkpoint file:  d2diacetylenenmr.chk
 -----------
 Diacetylene
 -----------
 Charge =  0 Multiplicity = 1

                         Standard orientation:
 ---------------------------------------------------------------------
 Center     Atomic      Atomic             Coordinates (Angstroms)
 Number     Number       Type             X           Y           Z
 ---------------------------------------------------------------------
      1          6           0        0.000000    0.000000    1.965000
      2          6           0        0.000000    0.000000    0.770000
      3          1           0        0.000000    0.000000    3.026000
      4          6           0        0.000000    0.000000   -0.770000
      5          6           0        0.000000    0.000000   -1.965000
      6          1           0        0.000000    0.000000   -3.026000
 ---------------------------------------------------------------------

 SCF Done:  E(RB3LYP) =  -153.477971951     A.U. after    8 cycles

      1  C    Isotropic =   132.2597   Anisotropy =   223.1226

      2  C    Isotropic =   126.6388   Anisotropy =   237.8162

      3  H    Isotropic =    30.0047   Anisotropy =    16.0702

      4  C    Isotropic =   126.6388   Anisotropy =   237.8162

      5  C    Isotropic =   132.2597   Anisotropy =   223.1226

      6  H    Isotropic =    30.0047   Anisotropy =    16.0702

 The electronic state is 1-SGG.
 Alpha  occ. eigenvalues --  -10.23272 -10.23269 -10.20984 -10.20982  -0.79530
 Alpha  occ. eigenvalues --   -0.75979  -0.60330  -0.53739  -0.50602  -0.34831
 Alpha  occ. eigenvalues --   -0.34831  -0.28071  -0.28071
 Alpha virt. eigenvalues --   -0.01697  -0.01697   0.08348   0.10237   0.12577
 Alpha virt. eigenvalues --    0.12577   0.14953   0.29821   0.33331   0.43199
 Alpha virt. eigenvalues --    0.43199   0.44894   0.48660   0.48660   0.54802

 Mulliken atomic charges:
              1
     1  C   -0.761526
     2  C    0.760852
     3  H    0.000674
     4  C    0.760852
     5  C   -0.761526
     6  H    0.000674
 Sum of Mulliken atomic charges =  -0.00000

 Dipole moment (field-independent basis, Debye):
    X=             -0.0000    Y=              0.0000    Z=             -0.0000  Tot=              0.0000
 Quadrupole moment (field-independent basis, Debye-Ang):
   XX=            -24.3481   YY=            -24.3481   ZZ=             -9.5499
   XY=             -0.0000   XZ=              0.0000   YZ=              0.0000

 Normal termination of Gaussian 09 at Mon Jul 28 15:09:24 2014.
