 Gaussian 09, Revision D.01,

 ------------------------------------------------------------
 #p opt=tight m06/cc-pvdz integral=(grid=ultrafine) scf=tight
 ------------------------------------------------------------

 ---------------------------------
 Cis-isomer of dimethyloxazolidine
 ---------------------------------
 Symbolic Z-matrix:
 Charge =  0 Multiplicity = 1

 SCF Done:  E(RM06) =  -1029.72747714     A.U. after   15 cycles
 SCF Done:  E(RM06) =  -1029.85530070     A.U. after   14 cycles
 SCF Done:  E(RM06) =  -1029.95616763     A.U. after   14 cycles
 SCF Done:  E(RM06) =  -1029.96939155     A.U. after   13 cycles
 SCF Done:  E(RM06) =  -1029.97225117     A.U. after   13 cycles
 SCF Done:  E(RM06) =  -1029.97187303     A.U. after   13 cycles
 SCF Done:  E(RM06) =  -1029.97338603     A.U. after   10 cycles
 SCF Done:  E(RM06) =  -1029.97395166     A.U. after   12 cycles
 SCF Done:  E(RM06) =  -1029.97457284     A.U. after   14 cycles
 SCF Done:  E(RM06) =  -1029.97485135     A.U. after   15 cycles
 SCF Done:  E(RM06) =  -1029.97513925     A.U. after    7 cycles
 SCF Done:  E(RM06) =  -1029.97513932     A.U. after    7 cycles
 SCF Done:  E(RM06) =  -1029.97513933     A.U. after    7 cycles
 SCF Done:  E(RM06) =  -1029.97513934     A.U. after    6 cycles
 SCF Done:  E(RM06) =  -1029.97513936     A.U. after    6 cycles
 SCF Done:  E(RM06) =  -1029.97513938     A.U. after    7 cycles
 SCF Done:  E(RM06) =  -1029.97513939     A.U. after    6 cycles
 SCF Done:  E(RM06) =  -1029.97513939     A.U. after    4 cycles
 Optimization completed.
    -- Stationary point found.
 Normal termination of Gaussian 09 at Fri Sep  5 00:27:16 2014.
 Gaussian 09:  EM64L-G09RevD.01 24-Apr-2013

 ----------------------------------------------------------------------
 #p nmr=(giao,spinspin,mixed) m06/cc-pvdz integral=(grid=ultrafine) scf
 =tight output=pickett geom=checkpoint
 ----------------------------------------------------------------------

 ---------------------------------
 Cis-isomer of dimethyloxazolidine
 ---------------------------------
 Structure from the checkpoint file:  "phenylthiaz_cis.chk"
 Charge =  0 Multiplicity = 1

 SCF Done:  E(RM06) =  -1030.08945167     A.U. after   16 cycles
 Normal termination of Gaussian 09 at Fri Sep  5 01:55:46 2014.

 ----------------------------------------------------------------------
 #P Geom=AllCheck Guess=TCheck SCRF=Check GenChk RM06/ChkBas NMR=ReadFC
  IOp(3/6=22)
 ----------------------------------------------------------------------

 Structure from the checkpoint file:  "phenylthiaz_cis.chk"
 ---------------------------------
 Cis-isomer of dimethyloxazolidine
 ---------------------------------
 Charge =  0 Multiplicity = 1

                         Standard orientation:
 ---------------------------------------------------------------------
 Center     Atomic      Atomic             Coordinates (Angstroms)
 Number     Number       Type             X           Y           Z
 ---------------------------------------------------------------------
      1          6           0        0.663132    0.648852   -0.678237
      2          6           0       -1.534278    1.402567    0.635926
      3          6           0       -1.654375    0.348175   -0.487781
      4          1           0        0.711152    1.105956   -1.681347
      5          1           0       -1.662984    0.920752    1.621885
      6          1           0       -2.288145    2.197467    0.529722
      7          1           0       -1.928798    0.861008   -1.426379
      8         16           0        0.147931    2.084216    0.482087
      9          7           0       -0.388644   -0.321762   -0.643100
     10          1           0       -0.263963   -0.981916    0.129623
     11          6           0        2.000922    0.077564   -0.311884
     12          6           0        3.016564    0.001579   -1.264877
     13          6           0        2.238832   -0.417526    0.974209
     14          6           0        4.249007   -0.563990   -0.944209
     15          1           0        2.836006    0.388436   -2.272659
     16          6           0        3.464147   -0.989472    1.294009
     17          1           0        1.458017   -0.325912    1.736489
     18          6           0        4.473766   -1.063548    0.334621
     19          1           0        5.036838   -0.615168   -1.700137
     20          1           0        3.638523   -1.372112    2.302962
     21          1           0        5.439921   -1.507007    0.588843
     22          6           0       -2.725250   -0.643877   -0.113408
     23          8           0       -2.520510   -1.689788    0.450296
     24          8           0       -3.940144   -0.173747   -0.420565
     25          6           0       -5.027398   -1.005133   -0.022207
     26          1           0       -5.940008   -0.482278   -0.329731
     27          1           0       -4.965849   -1.987808   -0.513045
     28          1           0       -5.022286   -1.159408    1.067259
 ---------------------------------------------------------------------

 SCF Done:  E(RM06) =  -1029.97513889     A.U. after   11 cycles

      1  C    Isotropic =   106.7446   Anisotropy =    41.4336

      2  C    Isotropic =   140.6424   Anisotropy =    36.2834

      3  C    Isotropic =   121.1146   Anisotropy =    58.0024

      4  H    Isotropic =    26.2799   Anisotropy =    10.4442

      5  H    Isotropic =    28.9283   Anisotropy =     8.6395

      6  H    Isotropic =    28.5498   Anisotropy =     9.8047

      7  H    Isotropic =    28.3115   Anisotropy =     9.5224

      8  S    Isotropic =   418.2901   Anisotropy =   455.7523

      9  N    Isotropic =   168.5784   Anisotropy =    47.8674

     10  H    Isotropic =    29.7064   Anisotropy =     8.5292

     11  C    Isotropic =    47.6965   Anisotropy =   183.9990

     12  C    Isotropic =    59.1655   Anisotropy =   159.0186

     13  C    Isotropic =    59.2976   Anisotropy =   181.7892

     14  C    Isotropic =    59.6329   Anisotropy =   176.8685

     15  H    Isotropic =    24.3431   Anisotropy =     8.4615

     16  C    Isotropic =    58.2442   Anisotropy =   180.0552

     17  H    Isotropic =    23.9215   Anisotropy =    12.1546

     18  C    Isotropic =    59.1602   Anisotropy =   180.2412

     19  H    Isotropic =    24.3778   Anisotropy =     5.0662

     20  H    Isotropic =    24.2165   Anisotropy =     6.0792

     21  H    Isotropic =    24.3236   Anisotropy =     4.6370

     22  C    Isotropic =    18.4657   Anisotropy =    96.1175

     23  O    Isotropic =   -60.2562   Anisotropy =   584.3730

     24  O    Isotropic =   151.8344   Anisotropy =   134.4494

     25  C    Isotropic =   134.3114   Anisotropy =    61.3730

     26  H    Isotropic =    28.1789   Anisotropy =     7.9096

     27  H    Isotropic =    27.8789   Anisotropy =     8.9576

     28  H    Isotropic =    27.9270   Anisotropy =     8.6619

 The electronic state is 1-A.
 Alpha  occ. eigenvalues --  -89.03217 -19.28429 -19.22651 -14.40981 -10.39380
 Alpha  occ. eigenvalues --  -10.31680 -10.31531 -10.30645 -10.28657 -10.26891
 Alpha  occ. eigenvalues --  -10.26096 -10.26055 -10.26025 -10.25988 -10.25966
 Alpha  occ. eigenvalues --   -8.03841  -5.95603  -5.95266  -5.94517  -1.14846
 Alpha  occ. eigenvalues --   -1.05972  -0.96594  -0.87585  -0.80925  -0.78785
 Alpha  occ. eigenvalues --   -0.76460  -0.76189  -0.72387  -0.65288  -0.62457
 Alpha  occ. eigenvalues --   -0.62182  -0.59376  -0.58838  -0.55924  -0.52106
 Alpha  occ. eigenvalues --   -0.51456  -0.50714  -0.48591  -0.47630  -0.47409
 Alpha  occ. eigenvalues --   -0.45554  -0.45224  -0.43270  -0.42843  -0.42396
 Alpha  occ. eigenvalues --   -0.40868  -0.39520  -0.39117  -0.37998  -0.37255
 Alpha  occ. eigenvalues --   -0.35699  -0.35257  -0.33744  -0.33328  -0.30144
 Alpha  occ. eigenvalues --   -0.27148  -0.26842  -0.25743  -0.22705
 Alpha virt. eigenvalues --   -0.01663  -0.00567   0.00184   0.04289   0.05398
 Alpha virt. eigenvalues --    0.06820   0.07528   0.08035   0.09824   0.10090
 Alpha virt. eigenvalues --    0.11316   0.11511   0.12140   0.12390   0.12660

 Mulliken charges:
               1
     1  C   -0.042973
     2  C   -0.091800
     3  C   -0.004068
     4  H    0.057046
     5  H    0.068072
     6  H    0.078642
     7  H    0.052802
     8  S   -0.068834
     9  N   -0.149630
    10  H    0.108302
    11  C    0.001763
    12  C   -0.009225
    13  C    0.019519
    14  C    0.007957
    15  H   -0.004899
    16  C    0.006520
    17  H   -0.011525
    18  C    0.000154
    19  H    0.006442
    20  H    0.007835
    21  H    0.005817
    22  C    0.262271
    23  O   -0.270447
    24  O   -0.291132
    25  C    0.078563
    26  H    0.059662
    27  H    0.063194
    28  H    0.059974
 Sum of Mulliken charges =   0.00000

 Dipole moment (field-independent basis, Debye):
    X=             -1.6523    Y=             -0.3361    Z=             -0.3612  Tot=              1.7244
 Quadrupole moment (field-independent basis, Debye-Ang):
   XX=            -73.4411   YY=           -103.0840   ZZ=            -91.4022
   XY=             -3.4609   XZ=             -1.4280   YZ=             -2.3291

 Normal termination of Gaussian 09 at Fri Sep  5 02:26:40 2014.
