 Gaussian 09, Revision A.02,

 ------------------------------------------------------------
 #p opt=tight m06/cc-pvdz scf=tight integral=(grid=ultrafine)
 ------------------------------------------------------------

 ------------------------
 Phenylaziridine geometry
 ------------------------
 Symbolic Z-matrix:
 Charge =  0 Multiplicity = 1

 SCF Done:  E(RM06) =  -364.706265033     A.U. after   14 cycles
 SCF Done:  E(RM06) =  -364.707662403     A.U. after   11 cycles
 SCF Done:  E(RM06) =  -364.707719866     A.U. after   11 cycles
 SCF Done:  E(RM06) =  -364.707725181     A.U. after    8 cycles
 SCF Done:  E(RM06) =  -364.707726488     A.U. after    8 cycles
 SCF Done:  E(RM06) =  -364.707727443     A.U. after    8 cycles
 SCF Done:  E(RM06) =  -364.707727782     A.U. after    8 cycles
 SCF Done:  E(RM06) =  -364.707728116     A.U. after    8 cycles
 SCF Done:  E(RM06) =  -364.707728216     A.U. after    7 cycles
 SCF Done:  E(RM06) =  -364.707728221     A.U. after    5 cycles
 Optimization completed.
    -- Stationary point found.
 Normal termination of Gaussian 09 at Tue Dec 31 12:46:45 2013.
 Gaussian 09:  EM64L-G09RevA.02 11-Jun-2009

 ----------------------------------------------------------------------
 #p nmr=(giao,spinspin,mixed) m06/cc-pvdz scf=tight integral=(grid=ultr
 afine) geom=checkpoint output=pickett
 ----------------------------------------------------------------------

 Phenylaziridine NMR properties
 ------------------------------
 Redundant internal coordinates taken from checkpoint file:
 phenylaziridine_a.chk
 Charge =  0 Multiplicity = 1

 SCF Done:  E(RM06) =  -364.778293776     A.U. after   16 cycles
 Normal termination of Gaussian 09 at Tue Dec 31 14:29:52 2013.

 ----------------------------------------------------------------------
 #P Geom=AllCheck Guess=TCheck SCRF=Check GenChk RM06/ChkBas NMR=ReadFC
  IOp(3/6=22)
 ----------------------------------------------------------------------

 Phenylaziridine NMR properties
 ------------------------------
 Redundant internal coordinates taken from checkpoint file:
 phenylaziridine_a.chk
 Charge =  0 Multiplicity = 1

                         Standard orientation:
 ---------------------------------------------------------------------
 Center     Atomic      Atomic             Coordinates (Angstroms)
 Number     Number       Type             X           Y           Z
 ---------------------------------------------------------------------
      1          6           0        2.572149    0.686063   -0.300870
      2          6           0        1.631165   -0.049803    0.565062
      3          1           0        3.491436    1.109793    0.115501
      4          1           0        2.143974    1.249058   -1.138778
      5          1           0        1.901735   -0.180483    1.621939
      6          7           0        2.523216   -0.776580   -0.342145
      7          1           0        1.976205   -1.055337   -1.162946
      8          6           0        0.166149   -0.009384    0.287624
      9          6           0       -0.554227   -1.202263    0.166483
     10          6           0       -0.516303    1.203710    0.166003
     11          6           0       -1.924063   -1.183289   -0.078587
     12          1           0       -0.025078   -2.156087    0.264619
     13          6           0       -1.887439    1.225998   -0.076380
     14          1           0        0.040505    2.141183    0.262538
     15          6           0       -2.594164    0.032295   -0.200438
     16          1           0       -2.473305   -2.123655   -0.175100
     17          1           0       -2.407703    2.182771   -0.172341
     18          1           0       -3.669884    0.048854   -0.393803
 ---------------------------------------------------------------------

 SCF Done:  E(RM06) =  -364.707728221     A.U. after   11 cycles

  1  C    Isotropic =   161.0336   Anisotropy =    53.9207

  2  C    Isotropic =   154.2120   Anisotropy =    60.9212

  3  H    Isotropic =    30.0832   Anisotropy =    13.0583

  4  H    Isotropic =    30.0782   Anisotropy =     9.1207

  5  H    Isotropic =    29.0400   Anisotropy =    12.2805

  6  N    Isotropic =   230.9333   Anisotropy =    95.6417

  7  H    Isotropic =    32.5245   Anisotropy =    14.9745

  8  C    Isotropic =    45.2973   Anisotropy =   193.8752

  9  C    Isotropic =    58.0896   Anisotropy =   171.7307

 10  C    Isotropic =    58.9333   Anisotropy =   165.3998

 11  C    Isotropic =    58.8686   Anisotropy =   179.6593

 12  H    Isotropic =    24.1113   Anisotropy =     9.0666

 13  C    Isotropic =    59.3556   Anisotropy =   178.6693

 14  H    Isotropic =    24.3278   Anisotropy =     8.7890

 15  C    Isotropic =    60.3106   Anisotropy =   179.4033

 16  H    Isotropic =    24.3054   Anisotropy =     5.3516

 17  H    Isotropic =    24.3628   Anisotropy =     5.3953

 18  H    Isotropic =    24.3772   Anisotropy =     4.8913

 The electronic state is 1-A.
 Alpha  occ. eigenvalues --  -14.39892 -10.28420 -10.27778 -10.26726 -10.26151
 Alpha  occ. eigenvalues --  -10.26139 -10.26051 -10.26011 -10.25982  -0.98058
 Alpha  occ. eigenvalues --   -0.87339  -0.77393  -0.76242  -0.67177  -0.64483
 Alpha  occ. eigenvalues --   -0.61601  -0.58949  -0.54362  -0.49576  -0.48499
 Alpha  occ. eigenvalues --   -0.46745  -0.45506  -0.43226  -0.39951  -0.38951
 Alpha  occ. eigenvalues --   -0.36343  -0.35950  -0.35108  -0.33658  -0.27072
 Alpha  occ. eigenvalues --   -0.26431  -0.26074
 Alpha virt. eigenvalues --   -0.00964  -0.00789   0.06685   0.07728   0.08815
 Alpha virt. eigenvalues --    0.09537   0.11412   0.11737   0.13251   0.14228
 Alpha virt. eigenvalues --    0.14792   0.15354   0.16960   0.21960   0.24480

 Mulliken atomic charges:
              1
     1  C    0.025691
     2  C   -0.063619
     3  H    0.048139
     4  H    0.040567
     5  H    0.050628
     6  N   -0.204173
     7  H    0.110544
     8  C   -0.032325
     9  C    0.005104
    10  C    0.005849
    11  C    0.003668
    12  H   -0.001756
    13  C    0.004851
    14  H   -0.008838
    15  C   -0.003005
    16  H    0.007307
    17  H    0.006353
    18  H    0.005016
 Sum of Mulliken atomic charges =   0.00000

 Dipole moment (field-independent basis, Debye):
    X=             -1.2716    Y=              0.8590    Z=             -0.4579  Tot=              1.6014
 Quadrupole moment (field-independent basis, Debye-Ang):
   XX=            -54.6713   YY=            -50.2904   ZZ=            -54.0121
   XY=              3.8554   XZ=              0.8179   YZ=              0.2703

 Normal termination of Gaussian 09 at Tue Dec 31 14:55:45 2013.
