 Gaussian 09, Revision D.01,

 ------------------------------------------------------------
 #p opt=tight m06/cc-pvdz integral=(grid=ultrafine) scf=tight
 ------------------------------------------------------------

 -----------------------------------
 Trans-isomer of dimethyloxazolidine
 -----------------------------------
 Symbolic Z-matrix:
 Charge =  0 Multiplicity = 1

 SCF Done:  E(RM06) =  -1029.72358050     A.U. after   16 cycles
 SCF Done:  E(RM06) =  -1029.85266794     A.U. after   14 cycles
 SCF Done:  E(RM06) =  -1029.95131444     A.U. after   14 cycles
 SCF Done:  E(RM06) =  -1029.96884055     A.U. after   14 cycles
 SCF Done:  E(RM06) =  -1029.97294046     A.U. after   13 cycles
 SCF Done:  E(RM06) =  -1029.97198960     A.U. after   14 cycles
 SCF Done:  E(RM06) =  -1029.97373961     A.U. after   10 cycles
 SCF Done:  E(RM06) =  -1029.97439658     A.U. after   13 cycles
 SCF Done:  E(RM06) =  -1029.97478718     A.U. after   12 cycles
 SCF Done:  E(RM06) =  -1029.97512077     A.U. after   13 cycles
 SCF Done:  E(RM06) =  -1029.97541294     A.U. after   10 cycles
 SCF Done:  E(RM06) =  -1029.97541296     A.U. after    7 cycles
 SCF Done:  E(RM06) =  -1029.97541295     A.U. after    6 cycles
 SCF Done:  E(RM06) =  -1029.97541295     A.U. after    6 cycles
 SCF Done:  E(RM06) =  -1029.97541295     A.U. after    5 cycles
 SCF Done:  E(RM06) =  -1029.97541295     A.U. after    4 cycles
 SCF Done:  E(RM06) =  -1029.97541295     A.U. after    5 cycles
 SCF Done:  E(RM06) =  -1029.97541295     A.U. after    4 cycles
 Optimization completed.
    -- Stationary point found.
 Normal termination of Gaussian 09 at Fri Sep  5 00:30:34 2014.
 Gaussian 09:  EM64L-G09RevD.01 24-Apr-2013

 ----------------------------------------------------------------------
 #p nmr=(giao,spinspin,mixed) m06/cc-pvdz integral=(grid=ultrafine) scf
 =tight output=pickett geom=checkpoint
 ----------------------------------------------------------------------

 -----------------------------------
 Trans-isomer of dimethyloxazolidine
 -----------------------------------
 Structure from the checkpoint file:  "phenylthiaz_trans.chk"
 Charge =  0 Multiplicity = 1

 SCF Done:  E(RM06) =  -1030.08975131     A.U. after   16 cycles
 Normal termination of Gaussian 09 at Fri Sep  5 02:03:13 2014.

 ----------------------------------------------------------------------
 #P Geom=AllCheck Guess=TCheck SCRF=Check GenChk RM06/ChkBas NMR=ReadFC
  IOp(3/6=22)
 ----------------------------------------------------------------------

 Structure from the checkpoint file:  "phenylthiaz_trans.chk"
 -----------------------------------
 Trans-isomer of dimethyloxazolidine
 -----------------------------------
 Charge =  0 Multiplicity = 1

                         Standard orientation:
 ---------------------------------------------------------------------
 Center     Atomic      Atomic             Coordinates (Angstroms)
 Number     Number       Type             X           Y           Z
 ---------------------------------------------------------------------
      1          6           0        0.721601    0.875122    0.922946
      2          6           0       -1.324836    1.480080   -0.675430
      3          6           0       -1.233901    0.061613   -0.076123
      4          1           0       -2.154795    2.040953   -0.209920
      5          1           0       -1.481381    1.453014   -1.764229
      6          1           0       -0.730811   -0.602370   -0.800233
      7         16           0        0.263583    2.283625   -0.276058
      8          7           0       -0.471574    0.116317    1.151322
      9          1           0       -1.057884    0.545569    1.869429
     10          6           0       -2.626056   -0.442619    0.203569
     11          8           0       -3.182375   -0.356112    1.269874
     12          8           0       -3.189321   -0.929664   -0.907992
     13          6           0       -4.542890   -1.353222   -0.763609
     14          1           0       -4.857333   -1.711241   -1.750346
     15          1           0       -4.620414   -2.161223   -0.021000
     16          1           0       -5.180700   -0.518095   -0.437313
     17          6           0        1.865797    0.043986    0.385340
     18          6           0        2.983008    0.651846   -0.194694
     19          6           0        1.855708   -1.345267    0.527407
     20          6           0        4.062736   -0.109912   -0.625912
     21          1           0        3.001150    1.738710   -0.322997
     22          6           0        2.932238   -2.110908    0.083096
     23          1           0        0.990270   -1.818976    0.997417
     24          6           0        4.039773   -1.497498   -0.493031
     25          1           0        4.927501    0.383740   -1.077151
     26          1           0        2.903835   -3.198338    0.194352
     27          1           0        4.885255   -2.097506   -0.839438
     28          1           0        1.033495    1.360437    1.862694
 ---------------------------------------------------------------------

 SCF Done:  E(RM06) =  -1029.97541246     A.U. after   11 cycles

      1  C    Isotropic =   109.5637   Anisotropy =    52.3578

      2  C    Isotropic =   141.1917   Anisotropy =    40.7338

      3  C    Isotropic =   123.9422   Anisotropy =    53.9642

      4  H    Isotropic =    29.1566   Anisotropy =     9.8041

      5  H    Isotropic =    28.5706   Anisotropy =     9.4268

      6  H    Isotropic =    28.2976   Anisotropy =     6.8006

      7  S    Isotropic =   425.4735   Anisotropy =   433.9456

      8  N    Isotropic =   180.4324   Anisotropy =    38.4498

      9  H    Isotropic =    29.3171   Anisotropy =    13.3228

     10  C    Isotropic =    18.2245   Anisotropy =    96.8751

     11  O    Isotropic =   -60.6071   Anisotropy =   585.3045

     12  O    Isotropic =   150.8703   Anisotropy =   135.0838

     13  C    Isotropic =   134.2918   Anisotropy =    61.7101

     14  H    Isotropic =    28.2073   Anisotropy =     8.0300

     15  H    Isotropic =    27.8621   Anisotropy =     8.9900

     16  H    Isotropic =    27.9519   Anisotropy =     8.9032

     17  C    Isotropic =    44.6953   Anisotropy =   179.9897

     18  C    Isotropic =    58.3182   Anisotropy =   174.3895

     19  C    Isotropic =    64.1438   Anisotropy =   174.4556

     20  C    Isotropic =    58.9083   Anisotropy =   177.8395

     21  H    Isotropic =    24.3055   Anisotropy =    11.4323

     22  C    Isotropic =    59.7095   Anisotropy =   176.6555

     23  H    Isotropic =    23.8300   Anisotropy =    11.7107

     24  C    Isotropic =    60.8879   Anisotropy =   177.0383

     25  H    Isotropic =    24.3322   Anisotropy =     5.5179

     26  H    Isotropic =    24.4180   Anisotropy =     5.8494

     27  H    Isotropic =    24.4646   Anisotropy =     4.5403

     28  H    Isotropic =    25.6800   Anisotropy =     5.8413

 The electronic state is 1-A.
 Alpha  occ. eigenvalues --  -89.03605 -19.28543 -19.22790 -14.41305 -10.39524
 Alpha  occ. eigenvalues --  -10.31850 -10.31771 -10.30759 -10.28891 -10.26370
 Alpha  occ. eigenvalues --  -10.25511 -10.25458 -10.25380 -10.25351 -10.25119
 Alpha  occ. eigenvalues --   -8.04232  -5.96002  -5.95659  -5.94896  -1.14974
 Alpha  occ. eigenvalues --   -1.06107  -0.96883  -0.86945  -0.80818  -0.79015
 Alpha  occ. eigenvalues --   -0.76322  -0.75507  -0.72608  -0.65230  -0.62758
 Alpha  occ. eigenvalues --   -0.61037  -0.59559  -0.58106  -0.56374  -0.52314
 Alpha  occ. eigenvalues --   -0.51690  -0.50623  -0.48757  -0.47741  -0.46623
 Alpha  occ. eigenvalues --   -0.45688  -0.44935  -0.42910  -0.42538  -0.42021
 Alpha  occ. eigenvalues --   -0.40894  -0.39823  -0.39232  -0.38138  -0.36490
 Alpha  occ. eigenvalues --   -0.35595  -0.34974  -0.33821  -0.33418  -0.30314
 Alpha  occ. eigenvalues --   -0.26956  -0.26358  -0.25663  -0.22947
 Alpha virt. eigenvalues --   -0.01193  -0.00022   0.00357   0.04145   0.05038
 Alpha virt. eigenvalues --    0.07022   0.07453   0.07768   0.09682   0.10348
 Alpha virt. eigenvalues --    0.10950   0.11591   0.11896   0.12621   0.12963

 Mulliken charges:
               1
     1  C   -0.124481
     2  C   -0.087054
     3  C   -0.006869
     4  H    0.070536
     5  H    0.083846
     6  H    0.055012
     7  S   -0.064558
     8  N   -0.134725
     9  H    0.112329
    10  C    0.263490
    11  O   -0.272373
    12  O   -0.289838
    13  C    0.078089
    14  H    0.060228
    15  H    0.063097
    16  H    0.060240
    17  C    0.022208
    18  C    0.008770
    19  C    0.017410
    20  C    0.003088
    21  H   -0.008361
    22  C    0.009842
    23  H   -0.005992
    24  C   -0.000098
    25  H    0.004238
    26  H    0.003803
    27  H    0.001564
    28  H    0.076559
 Sum of Mulliken charges =   0.00000

 Dipole moment (field-independent basis, Debye):
    X=             -1.4702    Y=             -1.0679    Z=             -1.1082  Tot=              2.1284
 Quadrupole moment (field-independent basis, Debye-Ang):
   XX=            -82.5948   YY=            -93.6594   ZZ=            -96.9259
   XY=              1.7168   XZ=              5.6174   YZ=              2.5114

 Normal termination of Gaussian 09 at Fri Sep  5 02:35:42 2014.
