 Gaussian 09, Revision A.02,

 ------------------------------------------------------------
 #p opt=tight m06/cc-pvtz scf=tight integral=(grid=ultrafine)
 ------------------------------------------------------------

 ---------------------
 Geometry optimisation
 ---------------------
 Symbolic Z-matrix:
 Charge =  0 Multiplicity = 1

 SCF Done:  E(RM06) =  -495.641075453     A.U. after   14 cycles
 SCF Done:  E(RM06) =  -495.665086773     A.U. after   12 cycles
 SCF Done:  E(RM06) =  -495.679116858     A.U. after   13 cycles
 SCF Done:  E(RM06) =  -495.693144695     A.U. after   15 cycles
 SCF Done:  E(RM06) =  -495.704668551     A.U. after   15 cycles
 SCF Done:  E(RM06) =  -495.706058783     A.U. after   12 cycles
 SCF Done:  E(RM06) =  -495.707562934     A.U. after   12 cycles
 SCF Done:  E(RM06) =  -495.708458736     A.U. after   12 cycles
 SCF Done:  E(RM06) =  -495.708198309     A.U. after   11 cycles
 SCF Done:  E(RM06) =  -495.708616963     A.U. after   10 cycles
 SCF Done:  E(RM06) =  -495.709425949     A.U. after    9 cycles
 SCF Done:  E(RM06) =  -495.709428094     A.U. after    9 cycles
 SCF Done:  E(RM06) =  -495.709428879     A.U. after    8 cycles
 SCF Done:  E(RM06) =  -495.709429651     A.U. after    8 cycles
 SCF Done:  E(RM06) =  -495.709429934     A.U. after    7 cycles
 SCF Done:  E(RM06) =  -495.709429977     A.U. after    6 cycles
 SCF Done:  E(RM06) =  -495.709429976     A.U. after    5 cycles
 SCF Done:  E(RM06) =  -495.709429978     A.U. after    4 cycles
 Optimization completed.
    -- Stationary point found.
 Normal termination of Gaussian 09 at Fri Feb 22 04:41:34 2013.
 Gaussian 09:  EM64L-G09RevA.02 11-Jun-2009

 ----------------------------------------------------------------------
 #p nmr=(giao,mixed,spinspin) m06/cc-pvtz geom=checkpoint integral=(gri
 d=ultrafine) scf=tight
 ----------------------------------------------------------------------

 Magnetic spinspin 1
 -------------------
 Redundant internal coordinates taken from checkpoint file:
 c6h1202_alanine2.chk
 Charge =  0 Multiplicity = 1

 SCF Done:  E(RM06) =  -495.742836067     A.U. after   15 cycles
 Normal termination of Gaussian 09 at Fri Feb 22 12:42:49 2013.

 ----------------------------------------------------------------------
 #P Geom=AllCheck Guess=TCheck SCRF=Check GenChk RM06/ChkBas NMR=ReadFC
  IOp(3/6=22)
 ----------------------------------------------------------------------

 Magnetic spinspin 1
 -------------------
 Redundant internal coordinates taken from checkpoint file:
 c6h1202_alanine2.chk
 Charge =  0 Multiplicity = 1

                         Standard orientation:
 ---------------------------------------------------------------------
 Center     Atomic      Atomic             Coordinates (Angstroms)
 Number     Number       Type             X           Y           Z
 ---------------------------------------------------------------------
      1          6           0       -1.328532   -0.298821    0.059987
      2          8           0       -1.349658   -1.375604    0.620890
      3          6           0       -3.733710   -0.303500   -0.427907
      4          1           0       -3.650568   -1.239763    0.118507
      5          1           0       -4.440572    0.345401    0.090552
      6          1           0       -4.117683   -0.514249   -1.426770
      7          7           0       -2.419451    0.287653   -0.482987
      8          1           0       -2.297620    1.165290   -0.958150
      9          6           0       -0.055036    0.525312   -0.036280
     10          1           0        0.036163    0.965576   -1.035065
     11          7           0        1.053661   -0.368538    0.170394
     12          1           0        0.823592   -1.263139    0.577498
     13          6           0        2.305637   -0.056886   -0.243818
     14          8           0        2.567604    0.998540   -0.784573
     15          6           0        3.353003   -1.105196    0.010984
     16          1           0        2.966860   -2.003027    0.491242
     17          1           0        3.813289   -1.375110   -0.938419
     18          1           0        4.133888   -0.673233    0.635390
     19          6           0       -0.077726    1.642833    0.998816
     20          1           0       -0.188197    1.219123    1.998583
     21          1           0        0.857842    2.197404    0.949550
     22          1           0       -0.901852    2.335992    0.824006
 ---------------------------------------------------------------------

 SCF Done:  E(RM06) =  -495.709432821     A.U. after    9 cycles

  1  C    Isotropic =     1.1425   Anisotropy =   130.3605

  2  O    Isotropic =   -47.0285   Anisotropy =   627.4910

  3  C    Isotropic =   153.4851   Anisotropy =    39.0955

  4  H    Isotropic =    27.7046   Anisotropy =     5.6540

  5  H    Isotropic =    29.7395   Anisotropy =    10.1050

  6  H    Isotropic =    29.7215   Anisotropy =    10.3159

  7  N    Isotropic =   139.3318   Anisotropy =   106.3287

  8  H    Isotropic =    27.3772   Anisotropy =     6.5264

  9  C    Isotropic =   128.8793   Anisotropy =    34.1470

 10  H    Isotropic =    27.9370   Anisotropy =     4.0921

 11  N    Isotropic =   115.9228   Anisotropy =   125.5146

 12  H    Isotropic =    25.1909   Anisotropy =     7.4338

 13  C    Isotropic =     6.2243   Anisotropy =   124.7067

 14  O    Isotropic =   -82.5563   Anisotropy =   636.8302

 15  C    Isotropic =   155.6201   Anisotropy =    41.6768

 16  H    Isotropic =    30.4846   Anisotropy =     5.6532

 17  H    Isotropic =    30.1069   Anisotropy =     6.8312

 18  H    Isotropic =    30.0515   Anisotropy =     6.6276

 19  C    Isotropic =   157.2279   Anisotropy =    31.6907

 20  H    Isotropic =    31.1979   Anisotropy =     6.9875

 21  H    Isotropic =    29.9475   Anisotropy =     6.9020

 22  H    Isotropic =    31.1593   Anisotropy =     8.0719

 The electronic state is 1-A.
 Alpha  occ. eigenvalues --  -19.19444 -19.16992 -14.43080 -14.40849 -10.35187
 Alpha  occ. eigenvalues --  -10.33586 -10.29311 -10.27840 -10.23940 -10.23764
 Alpha  occ. eigenvalues --   -1.07782  -1.05346  -0.95579  -0.94075  -0.79983
 Alpha  occ. eigenvalues --   -0.74474  -0.72613  -0.66287  -0.61227  -0.59125
 Alpha  occ. eigenvalues --   -0.55507  -0.50384  -0.48954  -0.48289  -0.47486
 Alpha  occ. eigenvalues --   -0.46391  -0.44783  -0.43379  -0.42175  -0.41216
 Alpha  occ. eigenvalues --   -0.40898  -0.39776  -0.39119  -0.38425  -0.36200
 Alpha  occ. eigenvalues --   -0.29194  -0.29028  -0.27137  -0.26558
 Alpha virt. eigenvalues --    0.01182   0.02177   0.03690   0.04498   0.05252
 Alpha virt. eigenvalues --    0.07070   0.08237   0.08728   0.10095   0.10931
 Alpha virt. eigenvalues --    0.11596   0.11795   0.12927   0.13125   0.14637

 Mulliken atomic charges:
              1
     1  C    0.304754
     2  O   -0.393620
     3  C   -0.169877
     4  H    0.131029
     5  H    0.093777
     6  H    0.096930
     7  N   -0.184250
     8  H    0.135450
     9  C   -0.097067
    10  H    0.180687
    11  N   -0.218373
    12  H    0.163502
    13  C    0.305888
    14  O   -0.400217
    15  C   -0.318968
    16  H    0.101996
    17  H    0.115129
    18  H    0.114311
    19  C   -0.373535
    20  H    0.136082
    21  H    0.152551
    22  H    0.123821
 Sum of Mulliken atomic charges =   0.00000

 Dipole moment (field-independent basis, Debye):
    X=             -2.8482    Y=              0.1887    Z=             -0.1300  Tot=              2.8574
 Quadrupole moment (field-independent basis, Debye-Ang):
   XX=            -55.2520   YY=            -62.6172   ZZ=            -61.0314
   XY=            -11.6633   XZ=              7.6291   YZ=              2.3688

 Normal termination of Gaussian 09 at Fri Feb 22 16:05:00 2013.
