 Gaussian 09, Revision D.01,

 ----------------------------------------------------------
 #p opt=tight m06/cc-pvtz scf=tight integral=grid=ultrafine
 ----------------------------------------------------------

 ---------------------
 Geometry optimisation
 ---------------------
 Symbolic Z-matrix:
 Charge =  0 Multiplicity = 1

 SCF Done:  E(RM06) =  -723.475438267     A.U. after   15 cycles
 SCF Done:  E(RM06) =  -723.519894461     A.U. after   13 cycles
 SCF Done:  E(RM06) =  -723.535489679     A.U. after   13 cycles
 SCF Done:  E(RM06) =  -723.551437964     A.U. after   13 cycles
 SCF Done:  E(RM06) =  -723.552538812     A.U. after   12 cycles
 SCF Done:  E(RM06) =  -723.554239018     A.U. after   12 cycles
 SCF Done:  E(RM06) =  -723.555397856     A.U. after   12 cycles
 SCF Done:  E(RM06) =  -723.552882828     A.U. after   12 cycles
 SCF Done:  E(RM06) =  -723.555733846     A.U. after    9 cycles
 SCF Done:  E(RM06) =  -723.555863211     A.U. after   12 cycles
 SCF Done:  E(RM06) =  -723.556781448     A.U. after    9 cycles
 SCF Done:  E(RM06) =  -723.556811583     A.U. after    9 cycles
 SCF Done:  E(RM06) =  -723.556817330     A.U. after    9 cycles
 SCF Done:  E(RM06) =  -723.556820662     A.U. after    9 cycles
 SCF Done:  E(RM06) =  -723.556820762     A.U. after    6 cycles
 SCF Done:  E(RM06) =  -723.556820761     A.U. after    5 cycles
 SCF Done:  E(RM06) =  -723.556820762     A.U. after    5 cycles
 SCF Done:  E(RM06) =  -723.556820762     A.U. after    4 cycles
 Optimization completed.
    -- Stationary point found.
 Normal termination of Gaussian 09 at Thu Oct  3 14:35:59 2013.
 Gaussian 09:  EM64L-G09RevD.01 24-Apr-2013

 ----------------------------------------------------------------------
 #p nmr=(giao,mixed,spinspin) m06/cc-pvtz geom=checkpoint integral=(gri
 d=ultrafine) scf=tight
 ----------------------------------------------------------------------

 ------------------------
 J-coupling calculation 1
 ------------------------
 Structure from the checkpoint file:  "glutamic_acid.chk"
 Charge =  0 Multiplicity = 1

 SCF Done:  E(RM06) =  -723.602643055     A.U. after   16 cycles
 Normal termination of Gaussian 09 at Thu Oct  3 23:10:24 2013.

 ----------------------------------------------------------------------
 #P Geom=AllCheck Guess=TCheck SCRF=Check GenChk RM06/ChkBas NMR=ReadFC
  IOp(3/6=22)
 ----------------------------------------------------------------------

 Structure from the checkpoint file:  "glutamic_acid.chk"
 ------------------------
 J-coupling calculation 1
 ------------------------
 Charge =  0 Multiplicity = 1

                         Standard orientation:
 ---------------------------------------------------------------------
 Center     Atomic      Atomic             Coordinates (Angstroms)
 Number     Number       Type             X           Y           Z
 ---------------------------------------------------------------------
      1          6           0        1.364819   -1.320112    0.086057
      2          6           0        0.308179   -0.255845   -0.235300
      3          1           0        0.383484   -0.005367   -1.298762
      4          6           0       -1.085428   -0.739286    0.095285
      5          1           0       -1.179846   -0.881806    1.175415
      6          1           0       -1.224702   -1.734727   -0.327375
      7          6           0       -2.149620    0.204461   -0.417441
      8          1           0       -2.100307    0.307763   -1.505827
      9          1           0       -2.011567    1.220152   -0.033577
     10          6           0       -3.538817   -0.224200   -0.058900
     11          8           0       -4.453303    0.601883   -0.597926
     12          1           0       -5.317920    0.268117   -0.324653
     13          8           0       -3.835213   -1.165492    0.618620
     14          8           0        1.118368   -2.281307    0.782029
     15          7           0        0.599737    0.975264    0.487571
     16          1           0        0.219839    1.070127    1.415599
     17          7           0        2.569023   -1.058791   -0.469443
     18          1           0        2.667672   -0.188995   -0.978260
     19          6           0        1.458767    1.917188    0.024120
     20          6           0        1.624540    3.134941    0.885890
     21          1           0        2.679598    3.250829    1.128929
     22          1           0        1.329948    4.009769    0.307772
     23          1           0        1.044136    3.104881    1.806741
     24          6           0        3.719997   -1.893775   -0.238351
     25          1           0        3.399938   -2.753478    0.345812
     26          1           0        4.145702   -2.245780   -1.178761
     27          1           0        4.496591   -1.363438    0.315846
     28          8           0        2.054085    1.793218   -1.030718
 ---------------------------------------------------------------------

 SCF Done:  E(RM06) =  -723.556824947     A.U. after   10 cycles

      1  C    Isotropic =     3.2354   Anisotropy =   114.5837

      2  C    Isotropic =   125.7101   Anisotropy =    32.8106

      3  H    Isotropic =    27.9034   Anisotropy =     3.9712

      4  C    Isotropic =   153.8383   Anisotropy =    16.6416

      5  H    Isotropic =    30.1086   Anisotropy =     5.4824

      6  H    Isotropic =    29.9233   Anisotropy =     6.4618

      7  C    Isotropic =   149.3487   Anisotropy =    40.7784

      8  H    Isotropic =    29.7620   Anisotropy =     6.7050

      9  H    Isotropic =    29.5734   Anisotropy =     5.2669

     10  C    Isotropic =     0.9870   Anisotropy =   100.3971

     11  O    Isotropic =   114.2290   Anisotropy =   206.4655

     12  H    Isotropic =    25.9648   Anisotropy =    12.1407

     13  O    Isotropic =  -103.7204   Anisotropy =   555.4031

     14  O    Isotropic =   -61.2148   Anisotropy =   617.6076

     15  N    Isotropic =   105.0099   Anisotropy =   131.5974

     16  H    Isotropic =    26.9802   Anisotropy =     6.3521

     17  N    Isotropic =   134.0674   Anisotropy =   103.6646

     18  H    Isotropic =    24.9402   Anisotropy =    10.2451

     19  C    Isotropic =     2.1428   Anisotropy =   131.9409

     20  C    Isotropic =   155.3123   Anisotropy =    42.2589

     21  H    Isotropic =    29.9478   Anisotropy =     6.9455

     22  H    Isotropic =    29.8878   Anisotropy =     6.9590

     23  H    Isotropic =    30.5703   Anisotropy =     5.7080

     24  C    Isotropic =   154.2273   Anisotropy =    38.1623

     25  H    Isotropic =    27.9088   Anisotropy =     6.0804

     26  H    Isotropic =    29.8367   Anisotropy =    10.4285

     27  H    Isotropic =    29.9039   Anisotropy =    10.0175

     28  O    Isotropic =   -72.6565   Anisotropy =   611.4376

 The electronic state is 1-A.
 Alpha  occ. eigenvalues --  -19.26825 -19.21060 -19.19628 -19.17923 -14.43656
 Alpha  occ. eigenvalues --  -14.40909 -10.38105 -10.36042 -10.33735 -10.29771
 Alpha  occ. eigenvalues --  -10.26475 -10.26369 -10.25724 -10.25231  -1.14225
 Alpha  occ. eigenvalues --   -1.07988  -1.06041  -1.05312  -0.96373  -0.93574
 Alpha  occ. eigenvalues --   -0.83349  -0.78492  -0.74838  -0.71737  -0.66029
 Alpha  occ. eigenvalues --   -0.62098  -0.60627  -0.58956  -0.55319  -0.53429
 Alpha  occ. eigenvalues --   -0.51664  -0.50980  -0.50434  -0.49685  -0.47754
 Alpha  occ. eigenvalues --   -0.47410  -0.46018  -0.44662  -0.43721  -0.43524
 Alpha  occ. eigenvalues --   -0.42426  -0.42273  -0.40287  -0.39923  -0.39050
 Alpha  occ. eigenvalues --   -0.38559  -0.37930  -0.36852  -0.35171  -0.31367
 Alpha  occ. eigenvalues --   -0.30412  -0.29120  -0.27170  -0.26462
 Alpha virt. eigenvalues --    0.00422   0.00685   0.01732   0.03085   0.03374
 Alpha virt. eigenvalues --    0.04328   0.04970   0.05631   0.08136   0.08330
 Alpha virt. eigenvalues --    0.09508   0.10286   0.10914   0.11666   0.11796

 Mulliken charges:
               1
     1  C    0.310969
     2  C   -0.173937
     3  H    0.219849
     4  C   -0.305431
     5  H    0.184135
     6  H    0.168626
     7  C   -0.310423
     8  H    0.156776
     9  H    0.165046
    10  C    0.367971
    11  O   -0.261238
    12  H    0.191358
    13  O   -0.335107
    14  O   -0.377341
    15  N   -0.187000
    16  H    0.147142
    17  N   -0.218724
    18  H    0.185073
    19  C    0.316569
    20  C   -0.305639
    21  H    0.117032
    22  H    0.118922
    23  H    0.100251
    24  C   -0.179231
    25  H    0.126927
    26  H    0.095759
    27  H    0.091365
    28  O   -0.409700
 Sum of Mulliken charges =   0.00000

 Dipole moment (field-independent basis, Debye):
    X=             -0.0555    Y=              3.6163    Z=              0.2147  Tot=              3.6231
 Quadrupole moment (field-independent basis, Debye-Ang):
   XX=            -74.5219   YY=            -89.0084   ZZ=            -83.5571
   XY=             -5.8259   XZ=              5.2416   YZ=             12.4642

 Normal termination of Gaussian 09 at Fri Oct  4 03:13:32 2013.
