 Gaussian 09, Revision A.02,

 ------------------------------------------------------------
 #p opt=tight m06/cc-pvtz scf=tight integral=(grid=ultrafine)
 ------------------------------------------------------------

 ---------------------
 Geometry optimisation
 ---------------------
 Symbolic Z-matrix:
 Charge =  0 Multiplicity = 1

 SCF Done:  E(RM06) =  -456.338029937     A.U. after   14 cycles
 SCF Done:  E(RM06) =  -456.360064068     A.U. after   13 cycles
 SCF Done:  E(RM06) =  -456.366485480     A.U. after   13 cycles
 SCF Done:  E(RM06) =  -456.378898590     A.U. after   15 cycles
 SCF Done:  E(RM06) =  -456.384824012     A.U. after   14 cycles
 SCF Done:  E(RM06) =  -456.392728390     A.U. after   13 cycles
 SCF Done:  E(RM06) =  -456.397983026     A.U. after   14 cycles
 SCF Done:  E(RM06) =  -456.400379741     A.U. after   11 cycles
 SCF Done:  E(RM06) =  -456.401321148     A.U. after   14 cycles
 SCF Done:  E(RM06) =  -456.401750066     A.U. after   12 cycles
 SCF Done:  E(RM06) =  -456.403663799     A.U. after    9 cycles
 SCF Done:  E(RM06) =  -456.403665715     A.U. after    9 cycles
 SCF Done:  E(RM06) =  -456.403666046     A.U. after    7 cycles
 SCF Done:  E(RM06) =  -456.403666139     A.U. after    7 cycles
 SCF Done:  E(RM06) =  -456.403666154     A.U. after    6 cycles
 SCF Done:  E(RM06) =  -456.403666152     A.U. after    5 cycles
 SCF Done:  E(RM06) =  -456.403666150     A.U. after    4 cycles
 SCF Done:  E(RM06) =  -456.403666150     A.U. after    4 cycles
 Optimization completed.
    -- Stationary point found.
 Normal termination of Gaussian 09 at Fri Feb 22 09:45:55 2013.
 Gaussian 09:  EM64L-G09RevA.02 11-Jun-2009

 ----------------------------------------------------------------------
 #p nmr=(giao,mixed,spinspin) m06/cc-pvtz geom=checkpoint integral=(gri
 d=ultrafine) scf=tight
 ----------------------------------------------------------------------

 J-coupling calculation 1
 ------------------------
 Redundant internal coordinates taken from checkpoint file:
 glycine.chk
 Charge =  0 Multiplicity = 1

 SCF Done:  E(RM06) =  -456.433561226     A.U. after   15 cycles
 Normal termination of Gaussian 09 at Fri Feb 22 15:01:48 2013.

 ----------------------------------------------------------------------
 #P Geom=AllCheck Guess=TCheck SCRF=Check GenChk RM06/ChkBas NMR=ReadFC
  IOp(3/6=22)
 ----------------------------------------------------------------------

 J-coupling calculation 1
 ------------------------
 Redundant internal coordinates taken from checkpoint file:
 glycine.chk
 Charge =  0 Multiplicity = 1

                         Standard orientation:
 ---------------------------------------------------------------------
 Center     Atomic      Atomic             Coordinates (Angstroms)
 Number     Number       Type             X           Y           Z
 ---------------------------------------------------------------------
      1          6           0       -0.054896    1.007518    0.499074
      2          1           0        0.069432    0.727852    1.549280
      3          1           0       -0.432540    2.033346    0.507134
      4          6           0       -1.103445    0.070983   -0.097428
      5          7           0        1.206634    0.976280   -0.170572
      6          1           0        1.303747    1.524337   -1.011356
      7          8           0       -0.804104   -0.873219   -0.789368
      8          7           0       -2.376081    0.380064    0.258688
      9          1           0       -2.531060    1.198302    0.821702
     10          6           0       -3.509727   -0.420552   -0.134631
     11          1           0       -3.134770   -1.243986   -0.737865
     12          1           0       -4.031561   -0.828484    0.732111
     13          1           0       -4.217388    0.156213   -0.731332
     14          6           0        2.162059   -0.006674   -0.076303
     15          6           0        2.000447   -0.996316    1.042101
     16          1           0        1.115368   -1.611013    0.874114
     17          1           0        2.880521   -1.631834    1.062145
     18          1           0        1.894192   -0.500527    2.008611
     19          8           0        3.092049   -0.032827   -0.846660
 ---------------------------------------------------------------------

 SCF Done:  E(RM06) =  -456.403668818     A.U. after   10 cycles

  1  C    Isotropic =   131.6194   Anisotropy =    47.4794

  2  H    Isotropic =    28.1983   Anisotropy =     2.8079

  3  H    Isotropic =    28.7681   Anisotropy =     6.1558

  4  C    Isotropic =     5.5940   Anisotropy =   117.8234

  5  N    Isotropic =   133.6881   Anisotropy =   132.8154

  6  H    Isotropic =    27.5164   Anisotropy =     8.4703

  7  O    Isotropic =   -73.8431   Anisotropy =   666.1025

  8  N    Isotropic =   142.7314   Anisotropy =   114.5919

  9  H    Isotropic =    27.5387   Anisotropy =     5.6770

 10  C    Isotropic =   153.4436   Anisotropy =    38.9884

 11  H    Isotropic =    27.6693   Anisotropy =     5.2321

 12  H    Isotropic =    29.7915   Anisotropy =    10.0979

 13  H    Isotropic =    29.7522   Anisotropy =    10.1377

 14  C    Isotropic =     2.5910   Anisotropy =   125.3713

 15  C    Isotropic =   158.6065   Anisotropy =    34.4904

 16  H    Isotropic =    29.7853   Anisotropy =     4.4776

 17  H    Isotropic =    30.2568   Anisotropy =     7.3914

 18  H    Isotropic =    30.2976   Anisotropy =     5.5624

 19  O    Isotropic =  -121.3882   Anisotropy =   594.5672

 The electronic state is 1-A.
 Alpha  occ. eigenvalues --  -19.19269 -19.16912 -14.43198 -14.41161 -10.35194
 Alpha  occ. eigenvalues --  -10.33553 -10.30076 -10.27976 -10.23398  -1.07644
 Alpha  occ. eigenvalues --   -1.05300  -0.95640  -0.94153  -0.77202  -0.74822
 Alpha  occ. eigenvalues --   -0.70772  -0.61354  -0.59163  -0.55324  -0.51744
 Alpha  occ. eigenvalues --   -0.50153  -0.48010  -0.47788  -0.46004  -0.43995
 Alpha  occ. eigenvalues --   -0.43156  -0.41371  -0.41130  -0.40210  -0.39113
 Alpha  occ. eigenvalues --   -0.37467  -0.29801  -0.29019  -0.26938  -0.26213
 Alpha virt. eigenvalues --    0.00654   0.01332   0.03805   0.04140   0.05089
 Alpha virt. eigenvalues --    0.05730   0.08887   0.09093   0.10812   0.10919
 Alpha virt. eigenvalues --    0.12530   0.12720   0.15118   0.16193   0.18834

 Mulliken atomic charges:
              1
     1  C   -0.256195
     2  H    0.175952
     3  H    0.147716
     4  C    0.314633
     5  N   -0.149659
     6  H    0.114513
     7  O   -0.367053
     8  N   -0.188649
     9  H    0.125949
    10  C   -0.170425
    11  H    0.133167
    12  H    0.094203
    13  H    0.096121
    14  C    0.295160
    15  C   -0.402486
    16  H    0.147754
    17  H    0.131501
    18  H    0.124412
    19  O   -0.366614
 Sum of Mulliken atomic charges =   0.00000

 Dipole moment (field-independent basis, Debye):
    X=             -5.3107    Y=              2.6962    Z=              3.4696  Tot=              6.8928
 Quadrupole moment (field-independent basis, Debye-Ang):
   XX=            -57.7460   YY=            -50.9715   ZZ=            -54.0987
   XY=             -2.7808   XZ=              3.5994   YZ=             -2.1995

 Normal termination of Gaussian 09 at Fri Feb 22 17:15:47 2013.
