 Gaussian 09, Revision A.02,

 ------------------------------------------------------------
 #p opt=tight m06/cc-pvtz scf=tight integral=(grid=ultrafine)
 ------------------------------------------------------------

 ---------------------
 Geometry optimisation
 ---------------------
 Symbolic Z-matrix:
 Charge =  1 Multiplicity = 1

 SCF Done:  E(RM06) =  -720.885357224     A.U. after   16 cycles
 SCF Done:  E(RM06) =  -720.921101545     A.U. after   13 cycles
 SCF Done:  E(RM06) =  -720.953506589     A.U. after   13 cycles
 SCF Done:  E(RM06) =  -720.974980715     A.U. after   13 cycles
 SCF Done:  E(RM06) =  -720.992738873     A.U. after   13 cycles
 SCF Done:  E(RM06) =  -721.012206030     A.U. after   13 cycles
 SCF Done:  E(RM06) =  -721.025336163     A.U. after   13 cycles
 SCF Done:  E(RM06) =  -721.030396651     A.U. after   13 cycles
 SCF Done:  E(RM06) =  -721.033565686     A.U. after   13 cycles
 SCF Done:  E(RM06) =  -721.043321446     A.U. after   15 cycles
 SCF Done:  E(RM06) =  -721.054600872     A.U. after    7 cycles
 SCF Done:  E(RM06) =  -721.054600907     A.U. after    7 cycles
 SCF Done:  E(RM06) =  -721.054600898     A.U. after    7 cycles
 SCF Done:  E(RM06) =  -721.054600896     A.U. after    4 cycles
 SCF Done:  E(RM06) =  -721.054600900     A.U. after    4 cycles
 SCF Done:  E(RM06) =  -721.054600897     A.U. after    4 cycles
 SCF Done:  E(RM06) =  -721.054600898     A.U. after    4 cycles
 SCF Done:  E(RM06) =  -721.054600898     A.U. after    3 cycles
 Optimization completed.
    -- Stationary point found.
 Normal termination of Gaussian 09 at Mon Apr  1 19:22:28 2013.
 Gaussian 09:  EM64L-G09RevA.02 11-Jun-2009

 ----------------------------------------------------------------------
 #p nmr=(giao,mixed,spinspin) m06/cc-pvtz geom=checkpoint integral=(gri
 d=ultrafine) scf=tight
 ----------------------------------------------------------------------

 J-coupling calculation 1
 ------------------------
 Redundant internal coordinates taken from checkpoint file:
 histidine.chk
 Charge =  1 Multiplicity = 1

 SCF Done:  E(RM06) =  -721.103790760     A.U. after   16 cycles
 Normal termination of Gaussian 09 at Sat Apr  6 14:35:38 2013.

 ----------------------------------------------------------------------
 #P Geom=AllCheck Guess=TCheck SCRF=Check GenChk RM06/ChkBas NMR=ReadFC
  IOp(3/6=22)
 ----------------------------------------------------------------------

 J-coupling calculation 1
 ------------------------
 Redundant internal coordinates taken from checkpoint file:
 histidine.chk
 Charge =  1 Multiplicity = 1

                         Standard orientation:
 ---------------------------------------------------------------------
 Center     Atomic      Atomic             Coordinates (Angstroms)
 Number     Number       Type             X           Y           Z
 ---------------------------------------------------------------------
      1          6           0       -2.484402   -2.008960    0.628316
      2          6           0       -1.553286   -1.064499    0.332657
      3          6           0       -3.474471   -0.424086   -0.538023
      4          1           0       -2.403442   -2.930271    1.175667
      5          1           0       -4.221151    0.146527   -1.061642
      6          6           0        2.219199   -0.423662    0.128096
      7          7           0        0.654105    1.340251    0.425987
      8          1           0        1.387655    1.564289    1.090763
      9          8           0        2.829145    0.028394    1.072549
     10          6           0        0.756162   -0.009956   -0.083494
     11          1           0        0.498547   -0.006906   -1.147072
     12          6           0       -0.107254   -1.021300    0.684384
     13          1           0        0.301654   -2.023033    0.529155
     14          1           0        0.014410   -0.810885    1.751004
     15          7           0       -2.203818   -0.096419   -0.397538
     16          7           0       -3.669622   -1.584377    0.077839
     17          1           0       -4.550007   -2.071910    0.125122
     18          7           0        2.697147   -1.326510   -0.744183
     19          1           0        2.135129   -1.570069   -1.542399
     20          6           0        4.042968   -1.859901   -0.656704
     21          1           0        4.025360   -2.948093   -0.628743
     22          1           0        4.647364   -1.534925   -1.502551
     23          1           0        4.492138   -1.487092    0.259440
     24          6           0       -0.075307    2.322783   -0.130325
     25          6           0        0.193970    3.711655    0.340041
     26          1           0        0.875295    3.756716    1.186319
     27          1           0        0.622379    4.274963   -0.489301
     28          1           0       -0.748167    4.191608    0.597267
     29          8           0       -0.927702    2.096262   -0.991591
     30          1           0       -1.738870    0.788782   -0.755118
 ---------------------------------------------------------------------

 SCF Done:  E(RM06) =  -721.054605091     A.U. after   10 cycles

  1  C    Isotropic =    54.4685   Anisotropy =   120.6207

  2  C    Isotropic =    35.7255   Anisotropy =   137.1826

  3  C    Isotropic =    39.2813   Anisotropy =   132.8020

  4  H    Isotropic =    24.6804   Anisotropy =     5.1263

  5  H    Isotropic =    23.6527   Anisotropy =     3.8701

  6  C    Isotropic =     5.6057   Anisotropy =   118.9253

  7  N    Isotropic =   105.7492   Anisotropy =   114.3434

  8  H    Isotropic =    24.0458   Anisotropy =     7.3844

  9  O    Isotropic =   -53.9104   Anisotropy =   626.0321

 10  C    Isotropic =   126.4927   Anisotropy =    27.8627

 11  H    Isotropic =    27.9736   Anisotropy =     4.0177

 12  C    Isotropic =   144.6836   Anisotropy =    26.6542

 13  H    Isotropic =    28.6921   Anisotropy =     5.9969

 14  H    Isotropic =    28.8115   Anisotropy =     5.3808

 15  N    Isotropic =    37.3628   Anisotropy =   216.0418

 16  N    Isotropic =    64.7187   Anisotropy =   170.9522

 17  H    Isotropic =    22.3463   Anisotropy =     7.7684

 18  N    Isotropic =   134.1386   Anisotropy =   102.3538

 19  H    Isotropic =    27.2230   Anisotropy =     6.6370

 20  C    Isotropic =   151.5355   Anisotropy =    42.7966

 21  H    Isotropic =    29.4754   Anisotropy =    10.1168

 22  H    Isotropic =    29.3982   Anisotropy =    10.4915

 23  H    Isotropic =    27.6754   Anisotropy =     6.3245

 24  C    Isotropic =    -5.6679   Anisotropy =   146.7142

 25  C    Isotropic =   154.9214   Anisotropy =    43.7992

 26  H    Isotropic =    30.0305   Anisotropy =     6.3046

 27  H    Isotropic =    29.4870   Anisotropy =     7.3947

 28  H    Isotropic =    29.7202   Anisotropy =     7.5472

 29  O    Isotropic =   -30.7136   Anisotropy =   504.5885

 30  H    Isotropic =    14.3904   Anisotropy =    22.8906

 The electronic state is 1-A.
 Alpha  occ. eigenvalues --  -19.32309 -19.30753 -14.63585 -14.61233 -14.55088
 Alpha  occ. eigenvalues --  -14.54242 -10.49399 -10.48211 -10.46854 -10.45365
 Alpha  occ. eigenvalues --  -10.44141 -10.43550 -10.40677 -10.37163 -10.35423
 Alpha  occ. eigenvalues --   -1.23969  -1.20484  -1.19179  -1.10213  -1.08252
 Alpha  occ. eigenvalues --   -1.06634  -0.97591  -0.93036  -0.87587  -0.85168
 Alpha  occ. eigenvalues --   -0.84236  -0.80652  -0.78677  -0.74201  -0.73317
 Alpha  occ. eigenvalues --   -0.71967  -0.69736  -0.67564  -0.65781  -0.64462
 Alpha  occ. eigenvalues --   -0.63018  -0.62348  -0.61709  -0.60283  -0.59505
 Alpha  occ. eigenvalues --   -0.58362  -0.57743  -0.57189  -0.55020  -0.54781
 Alpha  occ. eigenvalues --   -0.52951  -0.52256  -0.51096  -0.51005  -0.50804
 Alpha  occ. eigenvalues --   -0.49502  -0.42678  -0.42604  -0.42145  -0.40270
 Alpha  occ. eigenvalues --   -0.39531
 Alpha virt. eigenvalues --   -0.16506  -0.12906  -0.12220  -0.11195  -0.09414
 Alpha virt. eigenvalues --   -0.09269  -0.07668  -0.07346  -0.06210  -0.04820
 Alpha virt. eigenvalues --   -0.04259  -0.02559  -0.02205  -0.01669  -0.00419

 Mulliken atomic charges:
              1
     1  C   -0.024018
     2  C    0.050495
     3  C    0.140790
     4  H    0.139422
     5  H    0.147876
     6  C    0.279878
     7  N   -0.199457
     8  H    0.188352
     9  O   -0.375260
    10  C   -0.181697
    11  H    0.233135
    12  C   -0.197751
    13  H    0.174406
    14  H    0.182888
    15  N   -0.108427
    16  N   -0.002978
    17  H    0.132292
    18  N   -0.171890
    19  H    0.137041
    20  C   -0.150983
    21  H    0.103525
    22  H    0.112246
    23  H    0.135982
    24  C    0.332139
    25  C   -0.255437
    26  H    0.112459
    27  H    0.128217
    28  H    0.117015
    29  O   -0.426920
    30  H    0.246661
 Sum of Mulliken atomic charges =   1.00000

 Dipole moment (field-independent basis, Debye):
    X=             -7.3962    Y=             -4.2711    Z=             -1.0482  Tot=              8.6049
 Quadrupole moment (field-independent basis, Debye-Ang):
   XX=            -34.5638   YY=            -58.9371   ZZ=            -83.9794
   XY=             10.3039   XZ=             -7.0141   YZ=              3.5258

 Normal termination of Gaussian 09 at Sun Apr  7 00:56:35 2013.
