 Gaussian 09, Revision C.01,

 ------------------------------------------------------------
 #p opt=tight m06/cc-pvtz scf=tight integral=(grid=ultrafine)
 ------------------------------------------------------------

 (Enter c:\g09w\l101.exe)
 ---------------------
 Geometry optimisation
 ---------------------
 Charge =  0 Multiplicity = 1

 SCF Done:  E(RM06) =  -613.514010027     A.U. after   14 cycles
 SCF Done:  E(RM06) =  -613.546481491     A.U. after   13 cycles
 SCF Done:  E(RM06) =  -613.556556971     A.U. after   13 cycles
 SCF Done:  E(RM06) =  -613.567057897     A.U. after   13 cycles
 SCF Done:  E(RM06) =  -613.576427911     A.U. after   14 cycles
 SCF Done:  E(RM06) =  -613.579743486     A.U. after   13 cycles
 SCF Done:  E(RM06) =  -613.583086166     A.U. after   15 cycles
 SCF Done:  E(RM06) =  -613.584282699     A.U. after   12 cycles
 SCF Done:  E(RM06) =  -613.584656994     A.U. after   12 cycles
 SCF Done:  E(RM06) =  -613.586288910     A.U. after   13 cycles
 SCF Done:  E(RM06) =  -613.592641943     A.U. after    9 cycles
 SCF Done:  E(RM06) =  -613.592645561     A.U. after    9 cycles
 SCF Done:  E(RM06) =  -613.592646838     A.U. after    9 cycles
 SCF Done:  E(RM06) =  -613.592647571     A.U. after    7 cycles
 SCF Done:  E(RM06) =  -613.592647775     A.U. after    6 cycles
 SCF Done:  E(RM06) =  -613.592647777     A.U. after    5 cycles
 SCF Done:  E(RM06) =  -613.592647777     A.U. after    5 cycles
 SCF Done:  E(RM06) =  -613.592647778     A.U. after    4 cycles
 Optimization completed.
    -- Stationary point found.
 Normal termination of Gaussian 09 at Wed Mar 20 03:01:22 2013.
 Gaussian 09:  EM64W-G09RevC.01 23-Sep-2011

 ----------------------------------------------------------------------
 #p nmr=(giao,mixed,spinspin) m06/cc-pvtz geom=checkpoint integral=(gri
 d=ultrafine) scf=tight
 ----------------------------------------------------------------------

 ------------------------
 J-coupling calculation 1
 ------------------------
 Structure from the checkpoint file:  iso_leucine.chk
 Charge =  0 Multiplicity = 1

 SCF Done:  E(RM06) =  -613.636217478     A.U. after   15 cycles
 Normal termination of Gaussian 09 at Thu Mar 21 23:23:52 2013.

 ----------------------------------------------------------------------
 #P Geom=AllCheck Guess=TCheck SCRF=Check GenChk RM06/ChkBas NMR=ReadFC
  IOp(3/6=22)
 ----------------------------------------------------------------------

 Structure from the checkpoint file:  iso_leucine.chk
 ------------------------
 J-coupling calculation 1
 ------------------------
 Charge =  0 Multiplicity = 1

                         Standard orientation:
 ---------------------------------------------------------------------
 Center     Atomic      Atomic             Coordinates (Angstroms)
 Number     Number       Type             X           Y           Z
 ---------------------------------------------------------------------
      1          6           0        1.095135    1.081932   -0.141904
      2          6           0       -0.041220    0.230782    0.408577
      3          1           0       -0.317121    0.582621    1.408893
      4          6           0        0.378333   -1.246853    0.524980
      5          1           0        1.229292   -1.277321    1.220432
      6          6           0        0.853119   -1.802788   -0.811459
      7          1           0        0.032985   -1.723273   -1.533833
      8          1           0        1.659561   -1.173708   -1.200888
      9          6           0        1.334281   -3.238075   -0.735196
     10          1           0        1.779164   -3.555988   -1.678114
     11          1           0        2.092185   -3.356269    0.044021
     12          1           0        0.521348   -3.929291   -0.509586
     13          6           0       -0.750379   -2.066318    1.124270
     14          1           0       -0.411378   -3.066961    1.392674
     15          1           0       -1.158942   -1.590856    2.016136
     16          1           0       -1.569308   -2.171585    0.408277
     17          8           0        1.078570    1.518693   -1.275282
     18          7           0       -1.187799    0.427904   -0.443038
     19          1           0       -0.963568    0.744137   -1.376475
     20          7           0        2.123755    1.270655    0.716610
     21          1           0        2.028920    0.918012    1.653336
     22          6           0        3.306187    2.019074    0.367605
     23          1           0        3.216969    2.308079   -0.676674
     24          1           0        3.400731    2.921985    0.972535
     25          1           0        4.207105    1.417378    0.492018
     26          6           0       -2.424123    0.686046    0.068649
     27          6           0       -3.457929    1.101538   -0.941314
     28          1           0       -3.119672    1.015628   -1.972758
     29          1           0       -4.349014    0.492659   -0.800432
     30          1           0       -3.739529    2.135800   -0.744644
     31          8           0       -2.685050    0.584683    1.248386
 ---------------------------------------------------------------------

 SCF Done:  E(RM06) =  -613.592651159     A.U. after    9 cycles

      1  C    Isotropic =     1.4539   Anisotropy =   130.3351

      2  C    Isotropic =   121.2499   Anisotropy =    30.4297

      3  H    Isotropic =    27.5561   Anisotropy =     3.8840

      4  C    Isotropic =   136.5365   Anisotropy =    24.3562

      5  H    Isotropic =    30.6628   Anisotropy =     5.5625

      6  C    Isotropic =   155.0353   Anisotropy =    15.2118

      7  H    Isotropic =    31.0731   Anisotropy =     5.4565

      8  H    Isotropic =    30.8591   Anisotropy =     6.3731

      9  C    Isotropic =   165.1461   Anisotropy =    19.8937

     10  H    Isotropic =    30.9808   Anisotropy =    10.8901

     11  H    Isotropic =    31.5659   Anisotropy =     9.0758

     12  H    Isotropic =    31.0148   Anisotropy =     7.9894

     13  C    Isotropic =   161.0222   Anisotropy =    20.8497

     14  H    Isotropic =    30.8732   Anisotropy =     8.6895

     15  H    Isotropic =    30.6139   Anisotropy =     8.4413

     16  H    Isotropic =    31.5155   Anisotropy =     6.0995

     17  O    Isotropic =   -57.4316   Anisotropy =   642.4418

     18  N    Isotropic =   123.4842   Anisotropy =   128.8855

     19  H    Isotropic =    25.4603   Anisotropy =     5.3964

     20  N    Isotropic =   138.1021   Anisotropy =   107.0513

     21  H    Isotropic =    27.2817   Anisotropy =     7.3695

     22  C    Isotropic =   153.4658   Anisotropy =    39.4302

     23  H    Isotropic =    27.6946   Anisotropy =     5.9672

     24  H    Isotropic =    29.7192   Anisotropy =    10.9194

     25  H    Isotropic =    29.7422   Anisotropy =    10.0257

     26  C    Isotropic =     3.9701   Anisotropy =   127.9680

     27  C    Isotropic =   155.3551   Anisotropy =    42.4015

     28  H    Isotropic =    30.4072   Anisotropy =     5.5373

     29  H    Isotropic =    30.0444   Anisotropy =     7.0420

     30  H    Isotropic =    30.0453   Anisotropy =     7.1322

     31  O    Isotropic =   -83.8968   Anisotropy =   636.6136

 The electronic state is 1-A.
 Alpha  occ. eigenvalues --  -19.19228 -19.17297 -14.42895 -14.40860 -10.34960
 Alpha  occ. eigenvalues --  -10.33750 -10.28696 -10.27698 -10.25393 -10.23810
 Alpha  occ. eigenvalues --  -10.23598 -10.22853 -10.22283  -1.07563  -1.05546
 Alpha  occ. eigenvalues --   -0.95362  -0.94132  -0.83234  -0.77318  -0.74339
 Alpha  occ. eigenvalues --   -0.73558  -0.69278  -0.64827  -0.61015  -0.60128
 Alpha  occ. eigenvalues --   -0.56997  -0.55410  -0.50041  -0.49329  -0.48464
 Alpha  occ. eigenvalues --   -0.48397  -0.46915  -0.46253  -0.44742  -0.44236
 Alpha  occ. eigenvalues --   -0.42716  -0.41350  -0.41059  -0.40420  -0.39999
 Alpha  occ. eigenvalues --   -0.39098  -0.38909  -0.37839  -0.37186  -0.34976
 Alpha  occ. eigenvalues --   -0.34013  -0.33567  -0.28999  -0.28860  -0.27163
 Alpha  occ. eigenvalues --   -0.26649
 Alpha virt. eigenvalues --    0.01329   0.02171   0.03227   0.03833   0.05012
 Alpha virt. eigenvalues --    0.05054   0.07301   0.07587   0.08577   0.09219
 Alpha virt. eigenvalues --    0.09544   0.10707   0.10825   0.11395   0.11897

 Mulliken atomic charges:
              1
     1  C    0.268542
     2  C   -0.137778
     3  H    0.230669
     4  C   -0.163120
     5  H    0.197118
     6  C   -0.319125
     7  H    0.173627
     8  H    0.176047
     9  C   -0.406689
    10  H    0.123051
    11  H    0.127052
    12  H    0.138790
    13  C   -0.499181
    14  H    0.161930
    15  H    0.168059
    16  H    0.164128
    17  O   -0.393343
    18  N   -0.223246
    19  H    0.169274
    20  N   -0.166092
    21  H    0.138538
    22  C   -0.174124
    23  H    0.131506
    24  H    0.099023
    25  H    0.093834
    26  C    0.293196
    27  C   -0.317864
    28  H    0.102452
    29  H    0.115056
    30  H    0.116987
    31  O   -0.388321
 Sum of Mulliken atomic charges =   0.00000

 Dipole moment (field-independent basis, Debye):
    X=              2.6964    Y=             -0.2815    Z=              0.1631  Tot=              2.7160
 Quadrupole moment (field-independent basis, Debye-Ang):
   XX=            -76.8174   YY=            -80.0100   ZZ=            -82.7814
   XY=              1.6482   XZ=             13.4786   YZ=              2.3121

 Normal termination of Gaussian 09 at Sat Mar 23 04:59:37 2013.
