 Gaussian 09, Revision A.02,

 ------------------------------------------------------------
 #p opt=tight m06/cc-pvtz scf=tight integral=(grid=ultrafine)
 ------------------------------------------------------------

 ---------------------
 Geometry optimisation
 ---------------------
 Symbolic Z-matrix:
 Charge =  0 Multiplicity = 1

 SCF Done:  E(RM06) =  -613.495488628     A.U. after   14 cycles
 SCF Done:  E(RM06) =  -613.531395522     A.U. after   13 cycles
 SCF Done:  E(RM06) =  -613.538952130     A.U. after   14 cycles
 SCF Done:  E(RM06) =  -613.556637701     A.U. after   13 cycles
 SCF Done:  E(RM06) =  -613.567536965     A.U. after   13 cycles
 SCF Done:  E(RM06) =  -613.575731357     A.U. after   15 cycles
 SCF Done:  E(RM06) =  -613.579571845     A.U. after   12 cycles
 SCF Done:  E(RM06) =  -613.582440415     A.U. after   13 cycles
 SCF Done:  E(RM06) =  -613.582236052     A.U. after   12 cycles
 SCF Done:  E(RM06) =  -613.583794286     A.U. after   11 cycles
 SCF Done:  E(RM06) =  -613.588042093     A.U. after    6 cycles
 SCF Done:  E(RM06) =  -613.588042273     A.U. after    7 cycles
 SCF Done:  E(RM06) =  -613.588042421     A.U. after    7 cycles
 SCF Done:  E(RM06) =  -613.588042585     A.U. after    7 cycles
 SCF Done:  E(RM06) =  -613.588042675     A.U. after    7 cycles
 SCF Done:  E(RM06) =  -613.588042717     A.U. after    6 cycles
 SCF Done:  E(RM06) =  -613.588042728     A.U. after    5 cycles
 SCF Done:  E(RM06) =  -613.588042729     A.U. after    3 cycles
 SCF Done:  E(RM06) =  -613.588042729     A.U. after    4 cycles
 Optimization completed.
    -- Stationary point found.

 The electronic state is 1-A.
 Alpha  occ. eigenvalues --  -19.18073 -19.17469 -14.41920 -14.40964 -10.33834
 Alpha  occ. eigenvalues --  -10.33674 -10.28821 -10.26838 -10.25190 -10.25013
 Alpha  occ. eigenvalues --  -10.23774 -10.23147 -10.23029  -1.06579  -1.05497
 Alpha  occ. eigenvalues --   -0.94429  -0.94076  -0.83590  -0.78231  -0.74165
 Alpha  occ. eigenvalues --   -0.71727  -0.70142  -0.65616  -0.60514  -0.59229
 Alpha  occ. eigenvalues --   -0.58125  -0.54716  -0.50438  -0.49766  -0.48449
 Alpha  occ. eigenvalues --   -0.46826  -0.46237  -0.45622  -0.44985  -0.44349
 Alpha  occ. eigenvalues --   -0.42606  -0.41435  -0.40988  -0.40865  -0.40078
 Alpha  occ. eigenvalues --   -0.40036  -0.38704  -0.37767  -0.37047  -0.34901
 Alpha  occ. eigenvalues --   -0.34370  -0.33856  -0.29025  -0.27838  -0.27055
 Alpha  occ. eigenvalues --   -0.26211
 Alpha virt. eigenvalues --    0.01479   0.02531   0.03244   0.03896   0.04884
 Alpha virt. eigenvalues --    0.05570   0.06761   0.07664   0.08511   0.09335
 Alpha virt. eigenvalues --    0.09798   0.10026   0.10425   0.11462   0.11850

 Mulliken atomic charges:
              1
     1  C    0.300088
     2  C   -0.178487
     3  H    0.226838
     4  C   -0.418625
     5  H    0.136044
     6  H    0.132338
     7  H    0.143788
     8  O   -0.391207
     9  N   -0.214211
    10  H    0.174439
    11  N   -0.148746
    12  H    0.129656
    13  C   -0.177679
    14  H    0.130481
    15  H    0.102036
    16  H    0.091304
    17  C    0.306238
    18  C   -0.337501
    19  H    0.100805
    20  H    0.117653
    21  H    0.129154
    22  O   -0.384194
    23  C   -0.112656
    24  H    0.186251
    25  C   -0.493160
    26  H    0.154339
    27  H    0.156797
    28  H    0.148579
    29  C   -0.396959
    30  H    0.200974
    31  H    0.185623
 Sum of Mulliken atomic charges =   0.00000

 Dipole moment (field-independent basis, Debye):
    X=             -2.6604    Y=             -0.5048    Z=             -1.1716  Tot=              2.9504
 Quadrupole moment (field-independent basis, Debye-Ang):
   XX=            -85.9375   YY=            -69.0311   ZZ=            -82.6367
   XY=             -5.7135   XZ=              4.2020   YZ=             -4.6381

 Normal termination of Gaussian 09 at Sat Feb 23 12:11:26 2013.
 Gaussian 09:  EM64L-G09RevA.02 11-Jun-2009

 ----------------------------------------------------------------------
 #p nmr=(giao,mixed,spinspin) m06/cc-pvtz geom=checkpoint integral=(gri
 d=ultrafine) scf=tight
 ----------------------------------------------------------------------

 J-coupling calculation 1
 ------------------------
 Redundant internal coordinates taken from checkpoint file:
 leucine.chk
 Charge =  0 Multiplicity = 1

                         Standard orientation:
 ---------------------------------------------------------------------
 Center     Atomic      Atomic             Coordinates (Angstroms)
 Number     Number       Type             X           Y           Z
 ---------------------------------------------------------------------
      1          6           0        0.121247    1.134563    0.209988
      2          6           0        0.142956   -0.040844   -0.767145
      3          1           0        0.587696    0.306704   -1.704058
      4          6           0       -3.595855   -1.114086   -0.437606
      5          1           0       -4.336032   -1.192185    0.360215
      6          1           0       -3.970484   -0.403904   -1.177412
      7          1           0       -3.528281   -2.093165   -0.922194
      8          8           0        0.251914    0.981856    1.404766
      9          7           0        1.008640   -1.086798   -0.283590
     10          1           0        0.625199   -1.756051    0.362206
     11          7           0       -0.125732    2.331243   -0.376912
     12          1           0       -0.075353    2.378127   -1.380078
     13          6           0       -0.176001    3.562898    0.371099
     14          1           0       -0.202408    3.305767    1.427304
     15          1           0        0.704142    4.181938    0.188662
     16          1           0       -1.068522    4.137289    0.122085
     17          6           0        2.355987   -0.864747   -0.254377
     18          6           0        3.155699   -1.886690    0.501635
     19          1           0        2.671444   -2.862134    0.536394
     20          1           0        4.138878   -1.978484    0.047371
     21          1           0        3.289334   -1.532818    1.524904
     22          8           0        2.860858    0.092231   -0.799594
     23          6           0       -2.239967   -0.699433    0.106960
     24          1           0       -2.348332    0.274681    0.598718
     25          6           0       -1.769694   -1.700488    1.148847
     26          1           0       -1.544379   -2.665693    0.680736
     27          1           0       -0.891266   -1.342292    1.687503
     28          1           0       -2.550297   -1.878593    1.890565
     29          6           0       -1.272875   -0.534886   -1.062105
     30          1           0       -1.187712   -1.489559   -1.596126
     31          1           0       -1.725144    0.168838   -1.768422
 ---------------------------------------------------------------------

 SCF Done:  E(RM06) =  -613.631660781     A.U. after   16 cycles
