 Gaussian 09, Revision D.01,

 ------------------------------------------------------------
 #p opt=tight m06/cc-pvtz scf=tight integral=(grid=ultrafine)
 ------------------------------------------------------------

 ---------------------
 Geometry optimisation
 ---------------------
 Symbolic Z-matrix:
 Charge =  1 Multiplicity = 1

 SCF Done:  E(RM06) =  -669.162565313     A.U. after   15 cycles
 SCF Done:  E(RM06) =  -669.213441154     A.U. after   14 cycles
 SCF Done:  E(RM06) =  -669.238653535     A.U. after   13 cycles
 SCF Done:  E(RM06) =  -669.250312763     A.U. after   12 cycles
 SCF Done:  E(RM06) =  -669.262785777     A.U. after   13 cycles
 SCF Done:  E(RM06) =  -669.272149780     A.U. after   13 cycles
 SCF Done:  E(RM06) =  -669.273823322     A.U. after   13 cycles
 SCF Done:  E(RM06) =  -669.274432336     A.U. after   12 cycles
 SCF Done:  E(RM06) =  -669.275659708     A.U. after   12 cycles
 SCF Done:  E(RM06) =  -669.276301576     A.U. after   12 cycles
 SCF Done:  E(RM06) =  -669.278363926     A.U. after    6 cycles
 SCF Done:  E(RM06) =  -669.278363904     A.U. after    5 cycles
 SCF Done:  E(RM06) =  -669.278363912     A.U. after    5 cycles
 SCF Done:  E(RM06) =  -669.278363903     A.U. after    4 cycles
 SCF Done:  E(RM06) =  -669.278363908     A.U. after    2 cycles
 SCF Done:  E(RM06) =  -669.278363908     A.U. after    4 cycles
 SCF Done:  E(RM06) =  -669.278363907     A.U. after    2 cycles
 SCF Done:  E(RM06) =  -669.278363907     A.U. after    3 cycles
 Optimization completed.
    -- Stationary point found.
 Normal termination of Gaussian 09 at Sat Sep 28 08:11:25 2013.
 Gaussian 09:  EM64L-G09RevD.01 24-Apr-2013

 ----------------------------------------------------------------------
 #p nmr=(giao,mixed,spinspin) m06/cc-pvtz geom=checkpoint integral=(gri
 d=ultrafine) scf=tight
 ----------------------------------------------------------------------

 ------------------------
 J-coupling calculation 1
 ------------------------
 Structure from the checkpoint file:  "lysine.chk"
 Charge =  1 Multiplicity = 1

 SCF Done:  E(RM06) =  -669.325729460     A.U. after   15 cycles
 Normal termination of Gaussian 09 at Sat Sep 28 22:40:01 2013.

 ----------------------------------------------------------------------
 #P Geom=AllCheck Guess=TCheck SCRF=Check GenChk RM06/ChkBas NMR=ReadFC
  IOp(3/6=22)
 ----------------------------------------------------------------------

 Structure from the checkpoint file:  "lysine.chk"
 ------------------------
 J-coupling calculation 1
 ------------------------
 Charge =  1 Multiplicity = 1

                         Standard orientation:
 ---------------------------------------------------------------------
 Center     Atomic      Atomic             Coordinates (Angstroms)
 Number     Number       Type             X           Y           Z
 ---------------------------------------------------------------------
      1          6           0       -2.392496    0.063139    0.189543
      2          6           0       -1.036181   -0.314388   -0.427099
      3          1           0       -1.198745   -0.928958   -1.319963
      4          6           0       -0.251080   -1.151487    0.578785
      5          1           0       -0.888360   -1.995896    0.849329
      6          1           0       -0.101406   -0.570046    1.488704
      7          6           0        1.077071   -1.705499    0.082597
      8          1           0        1.371025   -2.523297    0.748645
      9          1           0        0.952923   -2.151504   -0.910852
     10          6           0        2.199108   -0.680079    0.052127
     11          1           0        2.020417    0.044734   -0.748690
     12          1           0        2.184340   -0.107522    0.985001
     13          6           0        3.543696   -1.325879   -0.131605
     14          1           0        3.777361   -2.042434    0.655579
     15          1           0        3.664159   -1.816858   -1.096993
     16          8           0       -2.568390    1.169183    0.648039
     17          7           0       -0.386952    0.906914   -0.886296
     18          1           0       -0.889721    1.311725   -1.663002
     19          1           0        5.554133   -0.609395   -0.150953
     20          1           0        4.454124    0.448522   -0.788790
     21          1           0        4.535748    0.245409    0.836081
     22          7           0        4.606587   -0.246079   -0.056652
     23          7           0       -3.346599   -0.897465    0.218047
     24          1           0       -4.206542   -0.585848    0.642772
     25          6           0       -3.356370   -2.161877   -0.482265
     26          1           0       -4.284871   -2.677408   -0.252775
     27          1           0       -3.306922   -2.039547   -1.567056
     28          1           0       -2.540969   -2.816027   -0.168446
     29          6           0        0.087513    1.877158   -0.018021
     30          6           0       -0.094077    3.281126   -0.509274
     31          1           0        0.038353    3.367893   -1.588311
     32          1           0       -1.115971    3.583695   -0.271921
     33          1           0        0.593675    3.945923    0.005158
     34          8           0        0.645001    1.615814    1.024719
 ---------------------------------------------------------------------

 SCF Done:  E(RM06) =  -669.278367691     A.U. after   10 cycles

      1  C    Isotropic =     1.3363   Anisotropy =   120.2190

      2  C    Isotropic =   116.8458   Anisotropy =    25.8303

      3  H    Isotropic =    28.3683   Anisotropy =     7.2706

      4  C    Isotropic =   150.4611   Anisotropy =    13.3289

      5  H    Isotropic =    29.9805   Anisotropy =     8.5071

      6  H    Isotropic =    28.7028   Anisotropy =     4.2563

      7  C    Isotropic =   151.7941   Anisotropy =    17.4124

      8  H    Isotropic =    30.2823   Anisotropy =     7.7891

      9  H    Isotropic =    30.3166   Anisotropy =     6.3141

     10  C    Isotropic =   147.2664   Anisotropy =    24.4723

     11  H    Isotropic =    29.3631   Anisotropy =     7.4928

     12  H    Isotropic =    29.0897   Anisotropy =     6.8024

     13  C    Isotropic =   125.8952   Anisotropy =    47.0739

     14  H    Isotropic =    28.5978   Anisotropy =     5.8735

     15  H    Isotropic =    28.5004   Anisotropy =     5.8691

     16  O    Isotropic =   -88.8502   Anisotropy =   594.1569

     17  N    Isotropic =   126.1305   Anisotropy =    82.9479

     18  H    Isotropic =    27.5811   Anisotropy =     7.2841

     19  H    Isotropic =    27.1616   Anisotropy =    17.4384

     20  H    Isotropic =    27.4952   Anisotropy =    12.4941

     21  H    Isotropic =    27.3446   Anisotropy =    12.4082

     22  N    Isotropic =   199.3516   Anisotropy =    30.8034

     23  N    Isotropic =   144.6181   Anisotropy =   136.2160

     24  H    Isotropic =    27.1250   Anisotropy =    11.2062

     25  C    Isotropic =   149.2355   Anisotropy =    42.7768

     26  H    Isotropic =    29.1079   Anisotropy =     9.5920

     27  H    Isotropic =    29.1291   Anisotropy =     8.1225

     28  H    Isotropic =    29.2123   Anisotropy =     5.3558

     29  C    Isotropic =    -8.5762   Anisotropy =   137.7944

     30  C    Isotropic =   151.9692   Anisotropy =    51.7585

     31  H    Isotropic =    30.1781   Anisotropy =     5.8728

     32  H    Isotropic =    28.9884   Anisotropy =     5.6761

     33  H    Isotropic =    30.2475   Anisotropy =     7.5079

     34  O    Isotropic =  -126.1575   Anisotropy =   655.2788

 The electronic state is 1-A.
 Alpha  occ. eigenvalues --  -19.27957 -19.27261 -14.69966 -14.51207 -14.50883
 Alpha  occ. eigenvalues --  -10.47111 -10.44123 -10.43282 -10.39625 -10.38893
 Alpha  occ. eigenvalues --  -10.37213 -10.37057 -10.35391 -10.32555  -1.20449
 Alpha  occ. eigenvalues --   -1.16389  -1.15331  -1.04191  -1.03466  -0.97143
 Alpha  occ. eigenvalues --   -0.91424  -0.86299  -0.83149  -0.81541  -0.79943
 Alpha  occ. eigenvalues --   -0.78476  -0.76660  -0.72573  -0.70305  -0.67894
 Alpha  occ. eigenvalues --   -0.66383  -0.64104  -0.61938  -0.61847  -0.59763
 Alpha  occ. eigenvalues --   -0.58393  -0.57872  -0.56691  -0.55628  -0.55237
 Alpha  occ. eigenvalues --   -0.54591  -0.52324  -0.51811  -0.50849  -0.50613
 Alpha  occ. eigenvalues --   -0.49688  -0.49660  -0.48066  -0.47323  -0.46628
 Alpha  occ. eigenvalues --   -0.45979  -0.39299  -0.37037  -0.36718  -0.35689
 Alpha virt. eigenvalues --   -0.17588  -0.12221  -0.11766  -0.09996  -0.08075
 Alpha virt. eigenvalues --   -0.07257  -0.06657  -0.06168  -0.05235  -0.04678
 Alpha virt. eigenvalues --   -0.04037  -0.03188  -0.02413  -0.01207  -0.00954

 Mulliken charges:
               1
     1  C    0.273775
     2  C   -0.134623
     3  H    0.227555
     4  C   -0.392611
     5  H    0.219051
     6  H    0.225600
     7  C   -0.331328
     8  H    0.165319
     9  H    0.186872
    10  C   -0.345599
    11  H    0.187953
    12  H    0.209077
    13  C   -0.165326
    14  H    0.171525
    15  H    0.170437
    16  O   -0.355609
    17  N   -0.176185
    18  H    0.119280
    19  H    0.144232
    20  H    0.147329
    21  H    0.151838
    22  N    0.222216
    23  N   -0.133646
    24  H    0.121436
    25  C   -0.229295
    26  H    0.117636
    27  H    0.123123
    28  H    0.124862
    29  C    0.278366
    30  C   -0.322140
    31  H    0.104793
    32  H    0.156005
    33  H    0.117437
    34  O   -0.379354
 Sum of Mulliken charges =   1.00000

 Dipole moment (field-independent basis, Debye):
    X=             14.6123    Y=             -4.6683    Z=             -3.7406  Tot=             15.7894
 Quadrupole moment (field-independent basis, Debye-Ang):
   XX=             16.4411   YY=            -72.3249   ZZ=            -82.0223
   XY=              2.7505   XZ=              1.7376   YZ=             -6.2519

 Normal termination of Gaussian 09 at Sun Sep 29 06:59:42 2013.
