 Gaussian 09, Revision D.01,

 ------------------------------------------------------------
 #p opt=tight m06/cc-pvtz scf=tight integral=(grid=ultrafine)
 ------------------------------------------------------------

 ---------------------
 Geometry optimisation
 ---------------------
 Symbolic Z-matrix:
 Charge =  0 Multiplicity = 1

 SCF Done:  E(RM06) =  -972.393449337     A.U. after   15 cycles
 SCF Done:  E(RM06) =  -972.428339930     A.U. after   15 cycles
 SCF Done:  E(RM06) =  -972.422841442     A.U. after   14 cycles
 SCF Done:  E(RM06) =  -972.429164165     A.U. after   10 cycles
 SCF Done:  E(RM06) =  -972.449849148     A.U. after   13 cycles
 SCF Done:  E(RM06) =  -972.460575492     A.U. after   12 cycles
 SCF Done:  E(RM06) =  -972.469211455     A.U. after   13 cycles
 SCF Done:  E(RM06) =  -972.470805506     A.U. after   13 cycles
 SCF Done:  E(RM06) =  -972.474703626     A.U. after   12 cycles
 SCF Done:  E(RM06) =  -972.475532072     A.U. after   12 cycles
 SCF Done:  E(RM06) =  -972.476708756     A.U. after    5 cycles
 SCF Done:  E(RM06) =  -972.476708756     A.U. after    4 cycles
 SCF Done:  E(RM06) =  -972.476708757     A.U. after    4 cycles
 SCF Done:  E(RM06) =  -972.476708757     A.U. after    3 cycles
 SCF Done:  E(RM06) =  -972.476708758     A.U. after    4 cycles
 SCF Done:  E(RM06) =  -972.476708757     A.U. after    3 cycles
 SCF Done:  E(RM06) =  -972.476708758     A.U. after    3 cycles
 SCF Done:  E(RM06) =  -972.476708758     A.U. after    3 cycles
 Optimization completed.
    -- Stationary point found.
 Normal termination of Gaussian 09 at Fri Sep 27 20:12:31 2013.
 Gaussian 09:  EM64L-G09RevD.01 24-Apr-2013

 ----------------------------------------------------------------------
 #p nmr=(giao,mixed,spinspin) m06/cc-pvtz geom=checkpoint integral=(gri
 d=ultrafine) scf=tight
 ----------------------------------------------------------------------

 ------------------------
 J-coupling calculation 1
 ------------------------
 Structure from the checkpoint file:  "methionine.chk"
 Charge =  0 Multiplicity = 1

 SCF Done:  E(RM06) =  -972.521269718     A.U. after   15 cycles
 Normal termination of Gaussian 09 at Sat Sep 28 06:53:47 2013.

 ----------------------------------------------------------------------
 #P Geom=AllCheck Guess=TCheck SCRF=Check GenChk RM06/ChkBas NMR=ReadFC
  IOp(3/6=22)
 ----------------------------------------------------------------------

 Structure from the checkpoint file:  "methionine.chk"
 ------------------------
 J-coupling calculation 1
 ------------------------
 Charge =  0 Multiplicity = 1

                         Standard orientation:
 ---------------------------------------------------------------------
 Center     Atomic      Atomic             Coordinates (Angstroms)
 Number     Number       Type             X           Y           Z
 ---------------------------------------------------------------------
      1          6           0       -4.629077    0.066087    0.325448
      2          1           0       -4.484192    1.128534    0.128133
      3          1           0       -4.643747   -0.108999    1.401442
      4          1           0       -5.583639   -0.242837   -0.094115
      5          6           0       -1.909378   -0.221207    0.409517
      6          1           0       -2.018385   -0.429127    1.480580
      7          1           0       -1.923846    0.865551    0.276109
      8          6           0       -0.633643   -0.824860   -0.132648
      9          1           0       -0.489056   -0.534001   -1.174490
     10          1           0       -0.688184   -1.914130   -0.114437
     11          6           0        0.585189   -0.417604    0.684443
     12          1           0        0.447422   -0.794213    1.704881
     13          6           0        1.837768   -1.137059    0.177557
     14         16           0       -3.337764   -0.918093   -0.469376
     15          7           0        0.739706    1.025842    0.824739
     16          1           0        0.441955    1.433363    1.695171
     17          8           0        1.756060   -2.265344   -0.254123
     18          6           0        0.814537    1.861898   -0.260349
     19          6           0        0.608847    3.318876    0.053788
     20          1           0        0.960150    3.590727    1.049224
     21          1           0        1.117563    3.920986   -0.693954
     22          1           0       -0.458216    3.543311   -0.001033
     23          7           0        3.001720   -0.469864    0.338128
     24          1           0        2.946706    0.494432    0.614295
     25          6           0        4.258713   -1.007255   -0.115571
     26          1           0        4.623719   -0.483965   -1.001205
     27          1           0        5.016056   -0.945800    0.666509
     28          1           0        4.099703   -2.051926   -0.372403
     29          8           0        1.025503    1.451902   -1.376859
 ---------------------------------------------------------------------

 SCF Done:  E(RM06) =  -972.476712412     A.U. after    9 cycles

      1  C    Isotropic =   155.5413   Anisotropy =    33.9936

      2  H    Isotropic =    29.9661   Anisotropy =     9.7118

      3  H    Isotropic =    29.9397   Anisotropy =    10.1015

      4  H    Isotropic =    30.0611   Anisotropy =    11.8357

      5  C    Isotropic =   136.8624   Anisotropy =    38.9581

      6  H    Isotropic =    29.7850   Anisotropy =     5.1556

      7  H    Isotropic =    29.7959   Anisotropy =     8.2014

      8  C    Isotropic =   153.3981   Anisotropy =    33.0803

      9  H    Isotropic =    29.2822   Anisotropy =     4.5242

     10  H    Isotropic =    29.5130   Anisotropy =     7.5851

     11  C    Isotropic =   118.1140   Anisotropy =    28.2755

     12  H    Isotropic =    28.8890   Anisotropy =     4.0799

     13  C    Isotropic =     6.2668   Anisotropy =   118.8689

     14  S    Isotropic =   537.7767   Anisotropy =   332.3703

     15  N    Isotropic =   127.4888   Anisotropy =   127.7833

     16  H    Isotropic =    26.7012   Anisotropy =     4.5963

     17  O    Isotropic =   -58.0290   Anisotropy =   640.4535

     18  C    Isotropic =     4.2705   Anisotropy =   124.7063

     19  C    Isotropic =   155.2430   Anisotropy =    45.7262

     20  H    Isotropic =    30.2829   Anisotropy =     5.9974

     21  H    Isotropic =    30.1727   Anisotropy =     7.6838

     22  H    Isotropic =    29.8229   Anisotropy =     5.4712

     23  N    Isotropic =   143.1792   Anisotropy =    99.3080

     24  H    Isotropic =    26.1936   Anisotropy =    10.1197

     25  C    Isotropic =   153.5218   Anisotropy =    39.2823

     26  H    Isotropic =    29.7705   Anisotropy =    10.2307

     27  H    Isotropic =    29.8892   Anisotropy =    10.5981

     28  H    Isotropic =    27.7937   Anisotropy =     6.0079

     29  O    Isotropic =  -132.1227   Anisotropy =   694.1053

 The electronic state is 1-A.
 Alpha  occ. eigenvalues --  -89.05149 -19.19431 -19.17528 -14.43304 -14.41300
 Alpha  occ. eigenvalues --  -10.35704 -10.33814 -10.30031 -10.26996 -10.26451
 Alpha  occ. eigenvalues --  -10.26073 -10.25733 -10.24089  -8.04381  -5.96253
 Alpha  occ. eigenvalues --   -5.95883  -5.95155  -1.07832  -1.05921  -0.96256
 Alpha  occ. eigenvalues --   -0.93579  -0.83224  -0.79673  -0.76065  -0.73519
 Alpha  occ. eigenvalues --   -0.70011  -0.64583  -0.61764  -0.59681  -0.58372
 Alpha  occ. eigenvalues --   -0.55287  -0.52715  -0.49602  -0.49171  -0.47124
 Alpha  occ. eigenvalues --   -0.46737  -0.45889  -0.44693  -0.44342  -0.43482
 Alpha  occ. eigenvalues --   -0.43079  -0.42615  -0.42063  -0.40073  -0.39398
 Alpha  occ. eigenvalues --   -0.39009  -0.37651  -0.36262  -0.35670  -0.32143
 Alpha  occ. eigenvalues --   -0.30795  -0.28511  -0.27232  -0.26464  -0.23060
 Alpha virt. eigenvalues --   -0.00249   0.00906   0.02558   0.03230   0.04199
 Alpha virt. eigenvalues --    0.04767   0.05085   0.07582   0.07688   0.08228
 Alpha virt. eigenvalues --    0.08293   0.08882   0.09185   0.10341   0.10868

 Mulliken charges:
               1
     1  C   -0.348461
     2  H    0.125749
     3  H    0.124249
     4  H    0.120500
     5  C   -0.330963
     6  H    0.163695
     7  H    0.166994
     8  C   -0.351667
     9  H    0.212753
    10  H    0.204414
    11  C   -0.096439
    12  H    0.195296
    13  C    0.271231
    14  S   -0.051931
    15  N   -0.209681
    16  H    0.146598
    17  O   -0.379196
    18  C    0.224561
    19  C   -0.328901
    20  H    0.104960
    21  H    0.125693
    22  H    0.133783
    23  N   -0.166692
    24  H    0.144287
    25  C   -0.177246
    26  H    0.097420
    27  H    0.090632
    28  H    0.129238
    29  O   -0.340875
 Sum of Mulliken charges =   0.00000

 Dipole moment (field-independent basis, Debye):
    X=              0.2144    Y=              4.7854    Z=              4.8215  Tot=              6.7966
 Quadrupole moment (field-independent basis, Debye-Ang):
   XX=            -75.7923   YY=            -89.3691   ZZ=            -88.2357
   XY=              0.6930   XZ=              0.6988   YZ=              2.7534

 Normal termination of Gaussian 09 at Sat Sep 28 12:27:26 2013.
