 Gaussian 09, Revision D.01,

 ------------------------------------------------------------
 #p opt=tight m06/cc-pvtz scf=tight integral=(grid=ultrafine)
 ------------------------------------------------------------

 ---------------------
 Geometry optimisation
 ---------------------
 Symbolic Z-matrix:
 Charge =  0 Multiplicity = 1

 SCF Done:  E(RM06) =  -573.000906347     A.U. after   14 cycles
 SCF Done:  E(RM06) =  -573.035006199     A.U. after   13 cycles
 SCF Done:  E(RM06) =  -573.052674690     A.U. after   12 cycles
 SCF Done:  E(RM06) =  -573.065275596     A.U. after   13 cycles
 SCF Done:  E(RM06) =  -573.073961780     A.U. after   14 cycles
 SCF Done:  E(RM06) =  -573.075999969     A.U. after   12 cycles
 SCF Done:  E(RM06) =  -573.079226760     A.U. after   12 cycles
 SCF Done:  E(RM06) =  -573.080240922     A.U. after   12 cycles
 SCF Done:  E(RM06) =  -573.078840456     A.U. after   12 cycles
 SCF Done:  E(RM06) =  -573.080543786     A.U. after    9 cycles
 SCF Done:  E(RM06) =  -573.081195310     A.U. after    7 cycles
 SCF Done:  E(RM06) =  -573.081195345     A.U. after    6 cycles
 SCF Done:  E(RM06) =  -573.081195361     A.U. after    6 cycles
 SCF Done:  E(RM06) =  -573.081195375     A.U. after    5 cycles
 SCF Done:  E(RM06) =  -573.081195383     A.U. after    5 cycles
 SCF Done:  E(RM06) =  -573.081195386     A.U. after    3 cycles
 SCF Done:  E(RM06) =  -573.081195385     A.U. after    4 cycles
 SCF Done:  E(RM06) =  -573.081195386     A.U. after    2 cycles
 Optimization completed.
    -- Stationary point found.
 Normal termination of Gaussian 09 at Thu Sep 26 19:42:43 2013.
 Gaussian 09:  EM64L-G09RevD.01 24-Apr-2013

 ----------------------------------------------------------------------
 #p nmr=(giao,mixed,spinspin) m06/cc-pvtz geom=checkpoint integral=(gri
 d=ultrafine) scf=tight
 ----------------------------------------------------------------------

 ------------------------
 J-coupling calculation 1
 ------------------------
 Structure from the checkpoint file:  "proline.chk"
 Charge =  0 Multiplicity = 1

 SCF Done:  E(RM06) =  -573.121102150     A.U. after   16 cycles
 Normal termination of Gaussian 09 at Fri Sep 27 04:40:58 2013.

 ----------------------------------------------------------------------
 #P Geom=AllCheck Guess=TCheck SCRF=Check GenChk RM06/ChkBas NMR=ReadFC
  IOp(3/6=22)
 ----------------------------------------------------------------------

 Structure from the checkpoint file:  "proline.chk"
 ------------------------
 J-coupling calculation 1
 ------------------------
 Charge =  0 Multiplicity = 1

                         Standard orientation:
 ---------------------------------------------------------------------
 Center     Atomic      Atomic             Coordinates (Angstroms)
 Number     Number       Type             X           Y           Z
 ---------------------------------------------------------------------
      1          6           0       -0.201559    2.061926   -0.205823
      2          6           0       -1.715366    2.178952   -0.249174
      3          6           0       -2.156511    0.881801    0.396129
      4          6           0        0.057314    0.582232   -0.517678
      5          1           0        0.323812    2.724276   -0.892709
      6          1           0        0.152941    2.268127    0.807736
      7          1           0       -2.065555    2.219412   -1.283742
      8          1           0       -2.087750    3.061369    0.268435
      9          1           0       -2.124586    0.945053    1.489536
     10          1           0       -3.152647    0.547461    0.112478
     11          1           0        0.209696    0.441815   -1.598031
     12          6           0        1.292929    0.125463    0.247097
     13          7           0       -1.161556   -0.067333   -0.084847
     14          8           0        1.254132   -0.138856    1.426578
     15          7           0        2.426862    0.109957   -0.498369
     16          1           0        2.354291    0.313277   -1.480110
     17          6           0        3.718867   -0.202734    0.060314
     18          1           0        4.148367   -1.093265   -0.400390
     19          1           0        4.417122    0.626412   -0.060498
     20          1           0        3.578296   -0.392127    1.121992
     21          6           0       -1.423366   -1.406312   -0.083103
     22          6           0       -0.340360   -2.303987   -0.616473
     23          1           0        0.443799   -2.419509    0.133828
     24          1           0       -0.776737   -3.278261   -0.816931
     25          1           0        0.120963   -1.916621   -1.526548
     26          8           0       -2.477988   -1.842374    0.325888
 ---------------------------------------------------------------------

 SCF Done:  E(RM06) =  -573.081198586     A.U. after   10 cycles

      1  C    Isotropic =   142.7902   Anisotropy =    27.9889

      2  C    Isotropic =   152.4453   Anisotropy =    14.4703

      3  C    Isotropic =   129.8002   Anisotropy =    38.3694

      4  C    Isotropic =   114.3310   Anisotropy =    32.6066

      5  H    Isotropic =    29.9180   Anisotropy =     8.2903

      6  H    Isotropic =    30.0196   Anisotropy =     6.0166

      7  H    Isotropic =    30.4766   Anisotropy =     9.6798

      8  H    Isotropic =    30.2778   Anisotropy =    10.5563

      9  H    Isotropic =    28.8012   Anisotropy =     9.0576

     10  H    Isotropic =    27.9224   Anisotropy =     7.3192

     11  H    Isotropic =    28.3090   Anisotropy =     5.8665

     12  C    Isotropic =     0.4724   Anisotropy =   127.4354

     13  N    Isotropic =   104.1251   Anisotropy =   155.4203

     14  O    Isotropic =   -50.1546   Anisotropy =   631.4565

     15  N    Isotropic =   136.5385   Anisotropy =   118.4064

     16  H    Isotropic =    27.0849   Anisotropy =     6.2551

     17  C    Isotropic =   153.4744   Anisotropy =    39.7094

     18  H    Isotropic =    29.7386   Anisotropy =    10.2356

     19  H    Isotropic =    29.7817   Anisotropy =    10.5492

     20  H    Isotropic =    27.6619   Anisotropy =     5.6326

     21  C    Isotropic =     6.1059   Anisotropy =   119.4856

     22  C    Isotropic =   156.5370   Anisotropy =    37.6325

     23  H    Isotropic =    30.0687   Anisotropy =     3.8577

     24  H    Isotropic =    30.2884   Anisotropy =     8.2595

     25  H    Isotropic =    30.4236   Anisotropy =     4.0132

     26  O    Isotropic =  -119.0186   Anisotropy =   614.5138

 The electronic state is 1-A.
 Alpha  occ. eigenvalues --  -19.18866 -19.16601 -14.43154 -14.41401 -10.34875
 Alpha  occ. eigenvalues --  -10.33113 -10.30047 -10.27854 -10.26863 -10.25914
 Alpha  occ. eigenvalues --  -10.25060 -10.23548  -1.07340  -1.05061  -0.96449
 Alpha  occ. eigenvalues --   -0.95427  -0.81953  -0.78403  -0.74431  -0.72325
 Alpha  occ. eigenvalues --   -0.65410  -0.61778  -0.61293  -0.58317  -0.54246
 Alpha  occ. eigenvalues --   -0.50922  -0.49527  -0.48788  -0.47573  -0.46122
 Alpha  occ. eigenvalues --   -0.45104  -0.44211  -0.43777  -0.41895  -0.41690
 Alpha  occ. eigenvalues --   -0.41097  -0.39584  -0.39483  -0.37219  -0.37112
 Alpha  occ. eigenvalues --   -0.36812  -0.35265  -0.28871  -0.28668  -0.26081
 Alpha  occ. eigenvalues --   -0.25452
 Alpha virt. eigenvalues --    0.00178   0.02061   0.03435   0.03706   0.04717
 Alpha virt. eigenvalues --    0.05805   0.06889   0.07933   0.09063   0.09488
 Alpha virt. eigenvalues --    0.09774   0.10645   0.11454   0.11965   0.12558

 Mulliken charges:
               1
     1  C   -0.297276
     2  C   -0.263568
     3  C   -0.194851
     4  C   -0.192346
     5  H    0.140656
     6  H    0.186913
     7  H    0.143716
     8  H    0.128716
     9  H    0.163170
    10  H    0.145466
    11  H    0.220648
    12  C    0.233049
    13  N   -0.089078
    14  O   -0.360526
    15  N   -0.164228
    16  H    0.136561
    17  C   -0.172130
    18  H    0.096149
    19  H    0.094411
    20  H    0.134034
    21  C    0.296821
    22  C   -0.422827
    23  H    0.154577
    24  H    0.134515
    25  H    0.136694
    26  O   -0.389264
 Sum of Mulliken charges =   0.00000

 Dipole moment (field-independent basis, Debye):
    X=              3.9299    Y=              3.1518    Z=             -3.9857  Tot=              6.4237
 Quadrupole moment (field-independent basis, Debye-Ang):
   XX=            -71.7746   YY=            -71.8623   ZZ=            -73.4481
   XY=             -8.7086   XZ=             -3.0402   YZ=              2.0960

 Normal termination of Gaussian 09 at Fri Sep 27 10:34:27 2013.
