 Gaussian 09, Revision A.02,

 ------------------------------------------------------------
 #p opt=tight m06/cc-pvtz scf=tight integral=(grid=ultrafine)
 ------------------------------------------------------------

 ---------------------
 Geometry optimisation
 ---------------------
 Symbolic Z-matrix:
 Charge =  0 Multiplicity = 1

 SCF Done:  E(RM06) =  -570.822277580     A.U. after   15 cycles
 SCF Done:  E(RM06) =  -570.848477754     A.U. after   13 cycles
 SCF Done:  E(RM06) =  -570.867720504     A.U. after   14 cycles
 SCF Done:  E(RM06) =  -570.877549795     A.U. after   14 cycles
 SCF Done:  E(RM06) =  -570.883410632     A.U. after   14 cycles
 SCF Done:  E(RM06) =  -570.890226237     A.U. after   12 cycles
 SCF Done:  E(RM06) =  -570.895419503     A.U. after   13 cycles
 SCF Done:  E(RM06) =  -570.898252157     A.U. after   13 cycles
 SCF Done:  E(RM06) =  -570.900962752     A.U. after   12 cycles
 SCF Done:  E(RM06) =  -570.903176984     A.U. after   15 cycles
 SCF Done:  E(RM06) =  -570.908041781     A.U. after    9 cycles
 SCF Done:  E(RM06) =  -570.908043841     A.U. after    9 cycles
 SCF Done:  E(RM06) =  -570.908045673     A.U. after    9 cycles
 SCF Done:  E(RM06) =  -570.908046197     A.U. after    7 cycles
 SCF Done:  E(RM06) =  -570.908046338     A.U. after    7 cycles
 SCF Done:  E(RM06) =  -570.908046356     A.U. after    6 cycles
 SCF Done:  E(RM06) =  -570.908046358     A.U. after    5 cycles
 SCF Done:  E(RM06) =  -570.908046358     A.U. after    4 cycles
 Optimization completed.
    -- Stationary point found.
 Normal termination of Gaussian 09 at Sat Feb 23 12:45:36 2013.
 Gaussian 09:  EM64L-G09RevA.02 11-Jun-2009

 ----------------------------------------------------------------------
 #p nmr=(giao,mixed,spinspin) m06/cc-pvtz geom=checkpoint integral=(gri
 d=ultrafine) scf=tight
 ----------------------------------------------------------------------

 J-coupling calculation 1
 ------------------------
 Redundant internal coordinates taken from checkpoint file:
 serine.chk
 Charge =  0 Multiplicity = 1

 SCF Done:  E(RM06) =  -570.944573935     A.U. after   15 cycles
 Normal termination of Gaussian 09 at Sat Feb 23 22:40:02 2013.

 ----------------------------------------------------------------------
 #P Geom=AllCheck Guess=TCheck SCRF=Check GenChk RM06/ChkBas NMR=ReadFC
  IOp(3/6=22)
 ----------------------------------------------------------------------

 J-coupling calculation 1
 ------------------------
 Redundant internal coordinates taken from checkpoint file:
 serine.chk
 Charge =  0 Multiplicity = 1

                         Standard orientation:
 ---------------------------------------------------------------------
 Center     Atomic      Atomic             Coordinates (Angstroms)
 Number     Number       Type             X           Y           Z
 ---------------------------------------------------------------------
      1          6           0        0.927819   -0.427798   -0.178400
      2          6           0       -0.011296    0.516377    0.595418
      3          1           0       -0.127464    0.116031    1.608399
      4          6           0        0.584567    1.905094    0.722473
      5          1           0       -0.120191    2.531088    1.281776
      6          1           0        1.524204    1.867257    1.289815
      7          8           0        0.790209    2.386014   -0.580484
      8          1           0        1.004573    3.318922   -0.552261
      9          7           0       -1.296975    0.622757   -0.029115
     10          1           0       -1.331593    1.232791   -0.834665
     11          8           0        0.598157   -0.947577   -1.215748
     12          7           0        2.126872   -0.637419    0.425249
     13          1           0        2.317139   -0.178286    1.298483
     14          6           0        3.145506   -1.480977   -0.150324
     15          1           0        4.052191   -0.917483   -0.374788
     16          1           0        3.400622   -2.308194    0.513445
     17          1           0        2.747813   -1.886111   -1.077729
     18          6           0       -2.269853   -0.345309   -0.048760
     19          6           0       -2.117731   -1.466355    0.942664
     20          1           0       -1.999801   -1.091932    1.961066
     21          1           0       -3.005801   -2.088930    0.891476
     22          1           0       -1.243962   -2.074437    0.702395
     23          8           0       -3.211002   -0.266471   -0.801115
 ---------------------------------------------------------------------

 SCF Done:  E(RM06) =  -570.908049685     A.U. after   10 cycles

  1  C    Isotropic =     5.2230   Anisotropy =   116.2032

  2  C    Isotropic =   120.3787   Anisotropy =    28.4213

  3  H    Isotropic =    28.3998   Anisotropy =     4.1102

  4  C    Isotropic =   110.8104   Anisotropy =    36.1529

  5  H    Isotropic =    27.9182   Anisotropy =     6.3793

  6  H    Isotropic =    27.8892   Anisotropy =     5.1643

  7  O    Isotropic =   300.3208   Anisotropy =    96.0409

  8  H    Isotropic =    31.4949   Anisotropy =    21.5502

  9  N    Isotropic =   125.8047   Anisotropy =   123.5531

 10  H    Isotropic =    26.4635   Anisotropy =     6.5140

 11  O    Isotropic =   -88.4083   Anisotropy =   680.5225

 12  N    Isotropic =   143.5686   Anisotropy =   106.2261

 13  H    Isotropic =    27.2828   Anisotropy =     6.7579

 14  C    Isotropic =   153.1914   Anisotropy =    39.4842

 15  H    Isotropic =    29.7076   Anisotropy =    10.2966

 16  H    Isotropic =    29.7286   Anisotropy =    10.3524

 17  H    Isotropic =    27.5936   Anisotropy =     5.5438

 18  C    Isotropic =     3.5368   Anisotropy =   124.7734

 19  C    Isotropic =   157.7221   Anisotropy =    35.3386

 20  H    Isotropic =    30.3436   Anisotropy =     5.5416

 21  H    Isotropic =    30.3000   Anisotropy =     7.7744

 22  H    Isotropic =    30.2811   Anisotropy =     3.7110

 23  O    Isotropic =  -124.5159   Anisotropy =   607.3599

 The electronic state is 1-A.
 Alpha  occ. eigenvalues --  -19.24126 -19.18703 -19.16594 -14.42688 -14.40298
 Alpha  occ. eigenvalues --  -10.34649 -10.33219 -10.31715 -10.30305 -10.27537
 Alpha  occ. eigenvalues --  -10.23530  -1.08198  -1.06972  -1.04902  -0.95123
 Alpha  occ. eigenvalues --   -0.93917  -0.79388  -0.74764  -0.72506  -0.66369
 Alpha  occ. eigenvalues --   -0.60785  -0.59637  -0.57220  -0.54309  -0.50132
 Alpha  occ. eigenvalues --   -0.49130  -0.48583  -0.47419  -0.46734  -0.45490
 Alpha  occ. eigenvalues --   -0.43561  -0.42913  -0.40975  -0.40794  -0.40078
 Alpha  occ. eigenvalues --   -0.39223  -0.38195  -0.37026  -0.32190  -0.28825
 Alpha  occ. eigenvalues --   -0.28377  -0.26745  -0.25788
 Alpha virt. eigenvalues --   -0.00121   0.01810   0.02361   0.03711   0.04924
 Alpha virt. eigenvalues --    0.05202   0.07615   0.08376   0.09184   0.10656
 Alpha virt. eigenvalues --    0.10998   0.11089   0.11963   0.13139   0.14757

 Mulliken atomic charges:
              1
     1  C    0.302590
     2  C   -0.190260
     3  H    0.218712
     4  C   -0.082570
     5  H    0.125348
     6  H    0.115085
     7  O   -0.311220
     8  H    0.180075
     9  N   -0.162538
    10  H    0.132075
    11  O   -0.350413
    12  N   -0.191827
    13  H    0.134896
    14  C   -0.173313
    15  H    0.094175
    16  H    0.095272
    17  H    0.134181
    18  C    0.293947
    19  C   -0.402689
    20  H    0.127817
    21  H    0.134445
    22  H    0.140751
    23  O   -0.364536
 Sum of Mulliken atomic charges =   0.00000

 Dipole moment (field-independent basis, Debye):
    X=              5.5021    Y=              2.2860    Z=              5.2060  Tot=              7.9121
 Quadrupole moment (field-independent basis, Debye-Ang):
   XX=            -71.8023   YY=            -55.0481   ZZ=            -67.1903
   XY=              0.7099   XZ=             -2.4184   YZ=             -2.0730

 Normal termination of Gaussian 09 at Sun Feb 24 02:55:57 2013.
