 Gaussian 09, Revision A.02,

 ------------------------------------------------------------
 #p opt=tight m06/cc-pvtz scf=tight integral=(grid=ultrafine)
 ------------------------------------------------------------

 ---------------------
 Geometry optimisation
 ---------------------
 Symbolic Z-matrix:
 Charge =  0 Multiplicity = 1

 SCF Done:  E(RM06) =  -610.122232190     A.U. after   15 cycles
 SCF Done:  E(RM06) =  -610.151669034     A.U. after   15 cycles
 SCF Done:  E(RM06) =  -610.166652573     A.U. after   15 cycles
 SCF Done:  E(RM06) =  -610.182815681     A.U. after   13 cycles
 SCF Done:  E(RM06) =  -610.199688226     A.U. after   13 cycles
 SCF Done:  E(RM06) =  -610.204398698     A.U. after   12 cycles
 SCF Done:  E(RM06) =  -610.205727560     A.U. after   12 cycles
 SCF Done:  E(RM06) =  -610.208731466     A.U. after   12 cycles
 SCF Done:  E(RM06) =  -610.209721919     A.U. after   12 cycles
 SCF Done:  E(RM06) =  -610.211894091     A.U. after   12 cycles
 SCF Done:  E(RM06) =  -610.216268438     A.U. after    9 cycles
 SCF Done:  E(RM06) =  -610.216268578     A.U. after    6 cycles
 SCF Done:  E(RM06) =  -610.216268673     A.U. after    6 cycles
 SCF Done:  E(RM06) =  -610.216268670     A.U. after    6 cycles
 SCF Done:  E(RM06) =  -610.216268663     A.U. after    6 cycles
 SCF Done:  E(RM06) =  -610.216268660     A.U. after    4 cycles
 SCF Done:  E(RM06) =  -610.216268656     A.U. after    3 cycles
 SCF Done:  E(RM06) =  -610.216268656     A.U. after    4 cycles
 Optimization completed.
    -- Stationary point found.
 Normal termination of Gaussian 09 at Sun Apr  7 11:00:18 2013.
 Gaussian 09:  EM64L-G09RevA.02 11-Jun-2009

 ----------------------------------------------------------------------
 #p nmr=(giao,mixed,spinspin) m06/cc-pvtz geom=checkpoint integral=(gri
 d=ultrafine) scf=tight
 ----------------------------------------------------------------------

 J-coupling calculation 1
 ------------------------
 Redundant internal coordinates taken from checkpoint file:
 threonine.chk
 Charge =  0 Multiplicity = 1

 SCF Done:  E(RM06) =  -610.256310572     A.U. after   16 cycles
 Normal termination of Gaussian 09 at Wed Apr 10 02:25:11 2013.

 ----------------------------------------------------------------------
 #P Geom=AllCheck Guess=TCheck SCRF=Check GenChk RM06/ChkBas NMR=ReadFC
  IOp(3/6=22)
 ----------------------------------------------------------------------

 J-coupling calculation 1
 ------------------------
 Redundant internal coordinates taken from checkpoint file:
 threonine.chk
 Charge =  0 Multiplicity = 1

                         Standard orientation:
 ---------------------------------------------------------------------
 Center     Atomic      Atomic             Coordinates (Angstroms)
 Number     Number       Type             X           Y           Z
 ---------------------------------------------------------------------
      1          6           0        0.227086    1.618024    0.222309
      2          1           0        0.235159    1.294969    1.267587
      3          6           0        0.061393    0.395755   -0.683094
      4          1           0        0.384671    0.733853   -1.675168
      5          6           0        0.943417   -0.819222   -0.327789
      6          8           0        0.521142   -1.946420   -0.482520
      7          7           0       -1.309930   -0.042483   -0.815530
      8          1           0       -1.503782   -0.521941   -1.679907
      9          6           0       -0.850501    2.650309    0.008796
     10          1           0       -1.817024    2.292998    0.357528
     11          1           0       -0.608856    3.557823    0.567335
     12          1           0       -0.927436    2.909957   -1.049129
     13          8           0        1.502929    2.163717   -0.131372
     14          1           0        1.648527    2.949341    0.399553
     15          6           0       -1.960098   -0.560389    0.278028
     16          6           0       -3.105312   -1.471068   -0.053688
     17          1           0       -2.695060   -2.460658   -0.265728
     18          1           0       -3.773125   -1.544718    0.799687
     19          1           0       -3.657979   -1.137630   -0.932129
     20          7           0        2.188232   -0.527511    0.099139
     21          1           0        2.442838    0.448135    0.152825
     22          6           0        3.149897   -1.550833    0.419752
     23          1           0        4.013158   -1.510977   -0.247146
     24          1           0        3.500859   -1.454174    1.448058
     25          1           0        2.664360   -2.516836    0.305010
     26          8           0       -1.630285   -0.295503    1.411452
 ---------------------------------------------------------------------

 SCF Done:  E(RM06) =  -610.216272158     A.U. after   10 cycles

  1  C    Isotropic =   107.9032   Anisotropy =    53.2163

  2  H    Isotropic =    26.8005   Anisotropy =     4.6247

  3  C    Isotropic =   114.8125   Anisotropy =    17.5486

  4  H    Isotropic =    29.1876   Anisotropy =     3.2245

  5  C    Isotropic =     2.6614   Anisotropy =   115.8108

  6  O    Isotropic =   -55.4214   Anisotropy =   612.1832

  7  N    Isotropic =   124.1376   Anisotropy =   114.5916

  8  H    Isotropic =    26.8024   Anisotropy =     5.9599

  9  C    Isotropic =   153.0263   Anisotropy =    31.7188

 10  H    Isotropic =    30.3409   Anisotropy =     7.0025

 11  H    Isotropic =    31.1355   Anisotropy =     8.6604

 12  H    Isotropic =    30.8124   Anisotropy =     6.7290

 13  O    Isotropic =   247.9829   Anisotropy =    75.8475

 14  H    Isotropic =    31.1380   Anisotropy =    18.0616

 15  C    Isotropic =    -2.0256   Anisotropy =   133.9540

 16  C    Isotropic =   154.9146   Anisotropy =    46.7586

 17  H    Isotropic =    29.5731   Anisotropy =     5.6546

 18  H    Isotropic =    30.3701   Anisotropy =     7.6247

 19  H    Isotropic =    30.1690   Anisotropy =     5.9629

 20  N    Isotropic =   139.3869   Anisotropy =    98.2428

 21  H    Isotropic =    24.4986   Anisotropy =    13.2883

 22  C    Isotropic =   153.6985   Anisotropy =    39.0454

 23  H    Isotropic =    29.8286   Anisotropy =    10.6577

 24  H    Isotropic =    29.7815   Anisotropy =    10.1438

 25  H    Isotropic =    27.7688   Anisotropy =     5.7855

 26  O    Isotropic =  -117.7909   Anisotropy =   649.4826

 The electronic state is 1-A.
 Alpha  occ. eigenvalues --  -19.23574 -19.17926 -19.17422 -14.41115 -14.40644
 Alpha  occ. eigenvalues --  -10.33953 -10.33441 -10.30428 -10.29213 -10.26197
 Alpha  occ. eigenvalues --  -10.23703 -10.23460  -1.07237  -1.06365  -1.05326
 Alpha  occ. eigenvalues --   -0.94276  -0.93457  -0.80229  -0.75346  -0.73467
 Alpha  occ. eigenvalues --   -0.69149  -0.63257  -0.59450  -0.57589  -0.55544
 Alpha  occ. eigenvalues --   -0.54280  -0.50057  -0.49018  -0.47055  -0.46311
 Alpha  occ. eigenvalues --   -0.45829  -0.45409  -0.44265  -0.42204  -0.41400
 Alpha  occ. eigenvalues --   -0.40610  -0.40305  -0.39716  -0.39432  -0.38020
 Alpha  occ. eigenvalues --   -0.37176  -0.35282  -0.31213  -0.28927  -0.27233
 Alpha  occ. eigenvalues --   -0.26871  -0.26426
 Alpha virt. eigenvalues --    0.01708   0.02249   0.02778   0.04145   0.05061
 Alpha virt. eigenvalues --    0.06392   0.07599   0.09195   0.09967   0.10203
 Alpha virt. eigenvalues --    0.10804   0.11396   0.11909   0.12172   0.12580

 Mulliken atomic charges:
              1
     1  C   -0.001309
     2  H    0.196092
     3  C   -0.115807
     4  H    0.202340
     5  C    0.278242
     6  O   -0.399766
     7  N   -0.147059
     8  H    0.113492
     9  C   -0.394792
    10  H    0.149771
    11  H    0.111822
    12  H    0.139177
    13  O   -0.351526
    14  H    0.186716
    15  C    0.272048
    16  C   -0.338217
    17  H    0.138289
    18  H    0.116061
    19  H    0.104934
    20  N   -0.188697
    21  H    0.165044
    22  C   -0.177824
    23  H    0.092773
    24  H    0.092013
    25  H    0.126981
    26  O   -0.370797
 Sum of Mulliken atomic charges =   0.00000

 Dipole moment (field-independent basis, Debye):
    X=              0.9058    Y=              2.6710    Z=             -1.4337  Tot=              3.1639
 Quadrupole moment (field-independent basis, Debye-Ang):
   XX=            -62.5836   YY=            -70.2357   ZZ=            -73.6108
   XY=              3.3314   XZ=              7.5645   YZ=              2.8302

 Normal termination of Gaussian 09 at Wed Apr 10 08:35:48 2013.
