 Gaussian 09, Revision D.01,

 ------------------------------------------------------------
 #p opt=tight m06/cc-pvtz scf=tight integral=(grid=ultrafine)
 ------------------------------------------------------------

 ---------------------
 Geometry optimisation
 ---------------------
 Symbolic Z-matrix:
 Charge =  0 Multiplicity = 1

 SCF Done:  E(RM06) =  -858.055430174     A.U. after   15 cycles
 SCF Done:  E(RM06) =  -858.096369595     A.U. after   13 cycles
 SCF Done:  E(RM06) =  -858.118459859     A.U. after   13 cycles
 SCF Done:  E(RM06) =  -858.136460140     A.U. after   13 cycles
 SCF Done:  E(RM06) =  -858.146510011     A.U. after   13 cycles
 SCF Done:  E(RM06) =  -858.152479219     A.U. after   13 cycles
 SCF Done:  E(RM06) =  -858.153526050     A.U. after   13 cycles
 SCF Done:  E(RM06) =  -858.154726933     A.U. after   13 cycles
 SCF Done:  E(RM06) =  -858.155724701     A.U. after   12 cycles
 SCF Done:  E(RM06) =  -858.155407068     A.U. after   13 cycles
 SCF Done:  E(RM06) =  -858.172629079     A.U. after    7 cycles
 SCF Done:  E(RM06) =  -858.172629216     A.U. after    6 cycles
 SCF Done:  E(RM06) =  -858.172629283     A.U. after    6 cycles
 SCF Done:  E(RM06) =  -858.172629322     A.U. after    5 cycles
 SCF Done:  E(RM06) =  -858.172629332     A.U. after    5 cycles
 SCF Done:  E(RM06) =  -858.172629335     A.U. after    4 cycles
 SCF Done:  E(RM06) =  -858.172629337     A.U. after    4 cycles
 SCF Done:  E(RM06) =  -858.172629337     A.U. after    2 cycles
 Optimization completed.
    -- Stationary point found.
 Normal termination of Gaussian 09 at Tue Oct  1 05:57:24 2013.
 Gaussian 09:  EM64L-G09RevD.01 24-Apr-2013

 ----------------------------------------------------------------------
 #p nmr=(giao,mixed,spinspin) m06/cc-pvtz geom=checkpoint integral=(gri
 d=ultrafine) scf=tight
 ----------------------------------------------------------------------

 ------------------------
 J-coupling calculation 1
 ------------------------
 Structure from the checkpoint file:  "tryptophan.chk"
 Charge =  0 Multiplicity = 1

 SCF Done:  E(RM06) =  -858.232651328     A.U. after   17 cycles
 Normal termination of Gaussian 09 at Wed Oct  2 05:40:52 2013.

 ----------------------------------------------------------------------
 #P Geom=AllCheck Guess=TCheck SCRF=Check GenChk RM06/ChkBas NMR=ReadFC
  IOp(3/6=22)
 ----------------------------------------------------------------------

 Structure from the checkpoint file:  "tryptophan.chk"
 ------------------------
 J-coupling calculation 1
 ------------------------
 Charge =  0 Multiplicity = 1

                         Standard orientation:
 ---------------------------------------------------------------------
 Center     Atomic      Atomic             Coordinates (Angstroms)
 Number     Number       Type             X           Y           Z
 ---------------------------------------------------------------------
      1          6           0       -1.911917   -0.334308   -0.380129
      2          6           0       -3.048898   -0.844274    0.279072
      3          6           0       -4.244687   -0.140306    0.343443
      4          6           0       -4.291508    1.091906   -0.271349
      5          6           0       -3.177367    1.613043   -0.940753
      6          6           0       -1.992454    0.913172   -1.003673
      7          6           0       -0.871896   -1.311963   -0.261616
      8          6           0       -1.404042   -2.349232    0.443365
      9          1           0       -5.109981   -0.545564    0.853196
     10          1           0       -5.208765    1.665647   -0.242400
     11          1           0       -3.254988    2.579300   -1.422277
     12          1           0       -1.135203    1.321072   -1.527889
     13          1           0       -0.948314   -3.285146    0.726733
     14          7           0       -2.710369   -2.074125    0.778570
     15          1           0       -3.330251   -2.697167    1.260396
     16          6           0        0.523348   -1.196819   -0.767925
     17          1           0        0.882134   -2.146792   -1.164620
     18          1           0        0.578643   -0.480541   -1.589618
     19          6           0        1.502653   -0.766426    0.324442
     20          1           0        1.495548   -1.542325    1.098873
     21          6           0        2.939683   -0.753479   -0.198314
     22          8           0        3.274898   -1.499837   -1.091397
     23          7           0        1.115193    0.460218    1.007213
     24          1           0        0.552401    0.347907    1.834829
     25          6           0        0.976327    1.647518    0.335276
     26          6           0        0.242051    2.716891    1.093539
     27          1           0        0.558038    3.692269    0.733500
     28          1           0       -0.827042    2.607078    0.894200
     29          1           0        0.396323    2.650833    2.170557
     30          8           0        1.413661    1.810950   -0.781264
     31          7           0        3.792568    0.052786    0.473486
     32          1           0        3.391105    0.703175    1.125951
     33          6           0        5.171789    0.197577    0.085824
     34          1           0        5.357145    1.160115   -0.394853
     35          1           0        5.832868    0.101870    0.947753
     36          1           0        5.401645   -0.592585   -0.625144
 ---------------------------------------------------------------------

 SCF Done:  E(RM06) =  -858.172634081     A.U. after   10 cycles

      1  C    Isotropic =    44.3099   Anisotropy =   178.3016

      2  C    Isotropic =    36.8511   Anisotropy =   156.4051

      3  C    Isotropic =    63.2609   Anisotropy =   157.2903

      4  C    Isotropic =    49.2882   Anisotropy =   184.0999

      5  C    Isotropic =    52.8011   Anisotropy =   180.0793

      6  C    Isotropic =    52.2640   Anisotropy =   185.7854

      7  C    Isotropic =    55.1781   Anisotropy =   140.7950

      8  C    Isotropic =    51.6934   Anisotropy =   112.5520

      9  H    Isotropic =    24.5256   Anisotropy =     6.4371

     10  H    Isotropic =    24.4399   Anisotropy =     5.4817

     11  H    Isotropic =    24.5001   Anisotropy =     6.7431

     12  H    Isotropic =    23.8851   Anisotropy =     8.7902

     13  H    Isotropic =    24.8658   Anisotropy =     6.5015

     14  N    Isotropic =   111.0479   Anisotropy =    80.9113

     15  H    Isotropic =    24.3382   Anisotropy =     9.9019

     16  C    Isotropic =   156.1048   Anisotropy =    23.5438

     17  H    Isotropic =    28.2746   Anisotropy =     8.6139

     18  H    Isotropic =    28.1418   Anisotropy =     4.2518

     19  C    Isotropic =   114.3777   Anisotropy =    36.6466

     20  H    Isotropic =    28.8343   Anisotropy =     4.5026

     21  C    Isotropic =     5.4126   Anisotropy =   120.7435

     22  O    Isotropic =   -57.3765   Anisotropy =   638.6486

     23  N    Isotropic =   124.5485   Anisotropy =   123.6277

     24  H    Isotropic =    27.1225   Anisotropy =     2.4714

     25  C    Isotropic =     0.9701   Anisotropy =   133.0431

     26  C    Isotropic =   154.3225   Anisotropy =    46.1837

     27  H    Isotropic =    30.4154   Anisotropy =     8.1588

     28  H    Isotropic =    30.2410   Anisotropy =     8.2938

     29  H    Isotropic =    30.7552   Anisotropy =     6.7348

     30  O    Isotropic =  -127.1744   Anisotropy =   685.7048

     31  N    Isotropic =   144.0392   Anisotropy =   101.2059

     32  H    Isotropic =    26.2166   Anisotropy =    10.3439

     33  C    Isotropic =   153.5527   Anisotropy =    39.1011

     34  H    Isotropic =    29.7204   Anisotropy =    10.3024

     35  H    Isotropic =    29.8747   Anisotropy =    10.7648

     36  H    Isotropic =    27.7255   Anisotropy =     6.0766

 The electronic state is 1-A.
 Alpha  occ. eigenvalues --  -19.18741 -19.17128 -14.43719 -14.42396 -14.40765
 Alpha  occ. eigenvalues --  -10.34881 -10.33348 -10.29295 -10.27414 -10.27139
 Alpha  occ. eigenvalues --  -10.26065 -10.24533 -10.24220 -10.23785 -10.23761
 Alpha  occ. eigenvalues --  -10.23672 -10.23663 -10.23615 -10.23232  -1.07053
 Alpha  occ. eigenvalues --   -1.05436  -1.00068  -0.95467  -0.93036  -0.85811
 Alpha  occ. eigenvalues --   -0.82223  -0.78706  -0.75096  -0.74765  -0.73276
 Alpha  occ. eigenvalues --   -0.71432  -0.66440  -0.63621  -0.60864  -0.60569
 Alpha  occ. eigenvalues --   -0.58677  -0.56713  -0.55096  -0.54182  -0.51972
 Alpha  occ. eigenvalues --   -0.49621  -0.48838  -0.48581  -0.47409  -0.46445
 Alpha  occ. eigenvalues --   -0.45740  -0.45170  -0.44564  -0.44111  -0.43399
 Alpha  occ. eigenvalues --   -0.42958  -0.41951  -0.41827  -0.41003  -0.39519
 Alpha  occ. eigenvalues --   -0.38909  -0.38701  -0.37631  -0.36892  -0.35792
 Alpha  occ. eigenvalues --   -0.35498  -0.34431  -0.30015  -0.29361  -0.27839
 Alpha  occ. eigenvalues --   -0.26720  -0.26218  -0.24092  -0.22004
 Alpha virt. eigenvalues --   -0.01680   0.00931   0.01291   0.02036   0.02563
 Alpha virt. eigenvalues --    0.03501   0.04673   0.05122   0.05212   0.06125
 Alpha virt. eigenvalues --    0.06591   0.08259   0.08655   0.09293   0.09443

 Mulliken charges:
               1
     1  C    0.132631
     2  C    0.074764
     3  C   -0.214879
     4  C   -0.131360
     5  C   -0.181815
     6  C   -0.280507
     7  C   -0.011898
     8  C   -0.175963
     9  H    0.115053
    10  H    0.125890
    11  H    0.139862
    12  H    0.223560
    13  H    0.143751
    14  N   -0.079182
    15  H    0.101986
    16  C   -0.375373
    17  H    0.205444
    18  H    0.212805
    19  C   -0.096529
    20  H    0.197942
    21  C    0.277466
    22  O   -0.381476
    23  N   -0.175644
    24  H    0.140497
    25  C    0.207641
    26  C   -0.357400
    27  H    0.127271
    28  H    0.157969
    29  H    0.111662
    30  O   -0.345384
    31  N   -0.166478
    32  H    0.142655
    33  C   -0.180467
    34  H    0.097396
    35  H    0.090003
    36  H    0.128106
 Sum of Mulliken charges =   0.00000

 Dipole moment (field-independent basis, Debye):
    X=             -2.3293    Y=             -0.3000    Z=              5.8860  Tot=              6.3372
 Quadrupole moment (field-independent basis, Debye-Ang):
   XX=           -104.6132   YY=           -104.9651   ZZ=           -111.9669
   XY=             10.6026   XZ=              4.7823   YZ=             -3.7055

 Normal termination of Gaussian 09 at Wed Oct  2 17:56:05 2013.
