 Gaussian 09, Revision D.01,

 ------------------------------------------------------------
 #p opt=tight m06/cc-pvtz scf=tight integral=(grid=ultrafine)
 ------------------------------------------------------------

 ---------------------
 Geometry optimisation
 ---------------------
 Symbolic Z-matrix:
 Charge =  0 Multiplicity = 1

 SCF Done:  E(RM06) =  -801.761186462     A.U. after   15 cycles
 SCF Done:  E(RM06) =  -801.787050570     A.U. after   14 cycles
 SCF Done:  E(RM06) =  -801.809652298     A.U. after   13 cycles
 SCF Done:  E(RM06) =  -801.829318778     A.U. after   13 cycles
 SCF Done:  E(RM06) =  -801.841105348     A.U. after   14 cycles
 SCF Done:  E(RM06) =  -801.850945675     A.U. after   13 cycles
 SCF Done:  E(RM06) =  -801.857718391     A.U. after   13 cycles
 SCF Done:  E(RM06) =  -801.861273536     A.U. after   13 cycles
 SCF Done:  E(RM06) =  -801.861255349     A.U. after   13 cycles
 SCF Done:  E(RM06) =  -801.862219582     A.U. after   10 cycles
 SCF Done:  E(RM06) =  -801.872323383     A.U. after    9 cycles
 SCF Done:  E(RM06) =  -801.872323470     A.U. after    7 cycles
 SCF Done:  E(RM06) =  -801.872323500     A.U. after    6 cycles
 SCF Done:  E(RM06) =  -801.872323500     A.U. after    4 cycles
 SCF Done:  E(RM06) =  -801.872323501     A.U. after    3 cycles
 SCF Done:  E(RM06) =  -801.872323500     A.U. after    4 cycles
 SCF Done:  E(RM06) =  -801.872323500     A.U. after    2 cycles
 SCF Done:  E(RM06) =  -801.872323500     A.U. after    3 cycles
 Optimization completed.
    -- Stationary point found.
 Normal termination of Gaussian 09 at Sun Sep 29 19:30:45 2013.
 Gaussian 09:  EM64L-G09RevD.01 24-Apr-2013

 ----------------------------------------------------------------------
 #p nmr=(giao,mixed,spinspin) m06/cc-pvtz geom=checkpoint integral=(gri
 d=ultrafine) scf=tight
 ----------------------------------------------------------------------

 ------------------------
 J-coupling calculation 1
 ------------------------
 Structure from the checkpoint file:  "tyrosine.chk"
 Charge =  0 Multiplicity = 1

 SCF Done:  E(RM06) =  -801.926553579     A.U. after   16 cycles
 Normal termination of Gaussian 09 at Mon Sep 30 10:35:14 2013.

 ----------------------------------------------------------------------
 #P Geom=AllCheck Guess=TCheck SCRF=Check GenChk RM06/ChkBas NMR=ReadFC
  IOp(3/6=22)
 ----------------------------------------------------------------------

 Structure from the checkpoint file:  "tyrosine.chk"
 ------------------------
 J-coupling calculation 1
 ------------------------
 Charge =  0 Multiplicity = 1

                         Standard orientation:
 ---------------------------------------------------------------------
 Center     Atomic      Atomic             Coordinates (Angstroms)
 Number     Number       Type             X           Y           Z
 ---------------------------------------------------------------------
      1          6           0        3.175623   -0.414684   -1.300728
      2          6           0        1.889589   -0.881637   -1.107209
      3          6           0        1.352503   -1.011976    0.167060
      4          6           0        2.154457   -0.660027    1.245467
      5          6           0        3.442842   -0.190396    1.070881
      6          6           0        3.957901   -0.064374   -0.209185
      7          1           0        3.579937   -0.323383   -2.303509
      8          1           0        1.290830   -1.157192   -1.968992
      9          1           0        1.763785   -0.770099    2.252214
     10          1           0        4.065860    0.077664    1.913824
     11          6           0       -0.053261   -1.491420    0.364576
     12          1           0       -0.227839   -2.427646   -0.170060
     13          1           0       -0.242198   -1.718010    1.417609
     14          6           0       -1.092862   -0.491156   -0.109118
     15          1           0       -0.956459   -0.280185   -1.175417
     16          6           0       -2.513234   -1.036708    0.093874
     17          8           0        5.224282    0.398830   -0.337258
     18          1           0        5.459779    0.430511   -1.267156
     19          8           0       -2.733835   -2.021662    0.767030
     20          7           0       -0.923327    0.776050    0.585720
     21          1           0       -0.416321    0.766575    1.455496
     22          7           0       -3.458016   -0.312968   -0.543548
     23          1           0       -3.152677    0.527450   -1.021002
     24          6           0       -1.248313    1.966690    0.029759
     25          6           0       -0.845812    3.186356    0.806253
     26          1           0       -0.112116    3.739834    0.221046
     27          1           0       -1.715505    3.829676    0.926759
     28          1           0       -0.421394    2.963463    1.783878
     29          6           0       -4.862042   -0.614083   -0.433505
     30          1           0       -5.405002    0.184539    0.075413
     31          1           0       -5.310666   -0.764210   -1.416386
     32          1           0       -4.966743   -1.529847    0.143794
     33          8           0       -1.828973    2.051553   -1.038705
 ---------------------------------------------------------------------

 SCF Done:  E(RM06) =  -801.872327956     A.U. after   10 cycles

      1  C    Isotropic =    59.5468   Anisotropy =   138.2942

      2  C    Isotropic =    42.5360   Anisotropy =   179.9734

      3  C    Isotropic =    43.2840   Anisotropy =   195.0891

      4  C    Isotropic =    40.4299   Anisotropy =   165.9994

      5  C    Isotropic =    58.8789   Anisotropy =   155.0908

      6  C    Isotropic =    16.2969   Anisotropy =   151.5348

      7  H    Isotropic =    25.3170   Anisotropy =     5.9587

      8  H    Isotropic =    24.6026   Anisotropy =     9.0652

      9  H    Isotropic =    24.6671   Anisotropy =     7.9003

     10  H    Isotropic =    24.9316   Anisotropy =     5.8002

     11  C    Isotropic =   142.0341   Anisotropy =    28.9916

     12  H    Isotropic =    28.8484   Anisotropy =     6.0131

     13  H    Isotropic =    29.2380   Anisotropy =     5.1293

     14  C    Isotropic =   122.6412   Anisotropy =    34.9748

     15  H    Isotropic =    27.7197   Anisotropy =     3.4796

     16  C    Isotropic =     2.9225   Anisotropy =   116.2647

     17  O    Isotropic =   202.1900   Anisotropy =    58.1622

     18  H    Isotropic =    27.8756   Anisotropy =    13.1586

     19  O    Isotropic =   -58.0277   Anisotropy =   614.6719

     20  N    Isotropic =   105.8139   Anisotropy =   130.2966

     21  H    Isotropic =    26.8862   Anisotropy =     5.6236

     22  N    Isotropic =   133.3422   Anisotropy =   102.8889

     23  H    Isotropic =    24.4329   Anisotropy =    11.1174

     24  C    Isotropic =     2.4445   Anisotropy =   132.7808

     25  C    Isotropic =   155.7505   Anisotropy =    41.7165

     26  H    Isotropic =    30.2918   Anisotropy =     6.0903

     27  H    Isotropic =    30.1680   Anisotropy =     7.8136

     28  H    Isotropic =    30.8189   Anisotropy =     5.2245

     29  C    Isotropic =   154.1966   Anisotropy =    38.1887

     30  H    Isotropic =    29.8819   Anisotropy =    10.1601

     31  H    Isotropic =    29.8120   Anisotropy =    10.4848

     32  H    Isotropic =    27.8787   Anisotropy =     6.0860

     33  O    Isotropic =   -66.1690   Anisotropy =   598.5940

 The electronic state is 1-A.
 Alpha  occ. eigenvalues --  -19.25266 -19.19012 -19.17525 -14.42876 -14.40368
 Alpha  occ. eigenvalues --  -10.35362 -10.33303 -10.31069 -10.29324 -10.26002
 Alpha  occ. eigenvalues --  -10.25126 -10.25086 -10.25047 -10.25004 -10.24919
 Alpha  occ. eigenvalues --  -10.24869 -10.24303  -1.09846  -1.07340  -1.05588
 Alpha  occ. eigenvalues --   -0.95735  -0.93109  -0.88062  -0.81444  -0.77259
 Alpha  occ. eigenvalues --   -0.77061  -0.74252  -0.71498  -0.66124  -0.64497
 Alpha  occ. eigenvalues --   -0.61288  -0.60755  -0.58334  -0.56839  -0.54935
 Alpha  occ. eigenvalues --   -0.51957  -0.51307  -0.50015  -0.48618  -0.46841
 Alpha  occ. eigenvalues --   -0.46728  -0.45651  -0.45561  -0.44217  -0.43976
 Alpha  occ. eigenvalues --   -0.43474  -0.42885  -0.42807  -0.41668  -0.40658
 Alpha  occ. eigenvalues --   -0.39416  -0.38807  -0.38557  -0.37682  -0.36788
 Alpha  occ. eigenvalues --   -0.35452  -0.35412  -0.30661  -0.28613  -0.27729
 Alpha  occ. eigenvalues --   -0.26731  -0.26092  -0.24036
 Alpha virt. eigenvalues --   -0.01781   0.00317   0.01268   0.01987   0.02373
 Alpha virt. eigenvalues --    0.03734   0.04186   0.04774   0.05809   0.06832
 Alpha virt. eigenvalues --    0.07753   0.08658   0.10056   0.10582   0.11074

 Mulliken charges:
               1
     1  C   -0.239576
     2  C   -0.231308
     3  C    0.180923
     4  C   -0.257397
     5  C   -0.170519
     6  C    0.286553
     7  H    0.115691
     8  H    0.153174
     9  H    0.166838
    10  H    0.125766
    11  C   -0.431878
    12  H    0.191023
    13  H    0.213524
    14  C   -0.171304
    15  H    0.227342
    16  C    0.321713
    17  O   -0.285730
    18  H    0.185295
    19  O   -0.385772
    20  N   -0.185032
    21  H    0.156299
    22  N   -0.218669
    23  H    0.188641
    24  C    0.324674
    25  C   -0.305696
    26  H    0.118522
    27  H    0.114444
    28  H    0.099732
    29  C   -0.182727
    30  H    0.091712
    31  H    0.094933
    32  H    0.125636
    33  O   -0.416828
 Sum of Mulliken charges =   0.00000

 Dipole moment (field-independent basis, Debye):
    X=              1.9175    Y=              2.0816    Z=             -0.4161  Tot=              2.8606
 Quadrupole moment (field-independent basis, Debye-Ang):
   XX=            -96.9574   YY=           -106.4984   ZZ=            -94.0309
   XY=             -3.2500   XZ=             -5.9525   YZ=              8.8453

 Normal termination of Gaussian 09 at Mon Sep 30 20:03:19 2013.
