 Gaussian 09, Revision A.02,

 ------------------------------------------------------------
 #p opt=tight m06/cc-pvtz scf=tight integral=(grid=ultrafine)
 ------------------------------------------------------------

 ---------------------
 Geometry optimisation
 ---------------------
 Symbolic Z-matrix:
 Charge =  0 Multiplicity = 1

 SCF Done:  E(RM06) =  -574.154247921     A.U. after   15 cycles
 SCF Done:  E(RM06) =  -574.196926068     A.U. after   13 cycles
 SCF Done:  E(RM06) =  -574.213564638     A.U. after   15 cycles
 SCF Done:  E(RM06) =  -574.233078054     A.U. after   13 cycles
 SCF Done:  E(RM06) =  -574.251827798     A.U. after   13 cycles
 SCF Done:  E(RM06) =  -574.269309593     A.U. after   13 cycles
 SCF Done:  E(RM06) =  -574.286877184     A.U. after   13 cycles
 SCF Done:  E(RM06) =  -574.293252606     A.U. after   13 cycles
 SCF Done:  E(RM06) =  -574.295993603     A.U. after   12 cycles
 SCF Done:  E(RM06) =  -574.298405256     A.U. after   12 cycles
 SCF Done:  E(RM06) =  -574.299920135     A.U. after    5 cycles
 SCF Done:  E(RM06) =  -574.299920150     A.U. after    5 cycles
 SCF Done:  E(RM06) =  -574.299920175     A.U. after    5 cycles
 SCF Done:  E(RM06) =  -574.299920185     A.U. after    5 cycles
 SCF Done:  E(RM06) =  -574.299920185     A.U. after    2 cycles
 SCF Done:  E(RM06) =  -574.299920185     A.U. after    4 cycles
 SCF Done:  E(RM06) =  -574.299920185     A.U. after    2 cycles
 SCF Done:  E(RM06) =  -574.299920185     A.U. after    2 cycles
 Optimization completed.
    -- Stationary point found.
 Normal termination of Gaussian 09 at Thu Mar 28 20:15:11 2013.
 Gaussian 09:  EM64L-G09RevA.02 11-Jun-2009

 ----------------------------------------------------------------------
 #p nmr=(giao,mixed,spinspin) m06/cc-pvtz geom=checkpoint integral=(gri
 d=ultrafine) scf=tight
 ----------------------------------------------------------------------

 J-coupling calculation 1
 ------------------------
 Redundant internal coordinates taken from checkpoint file:
 valine.chk
 Charge =  0 Multiplicity = 1

 SCF Done:  E(RM06) =  -574.340124495     A.U. after   15 cycles
 Normal termination of Gaussian 09 at Sun Mar 31 18:06:19 2013.

 ----------------------------------------------------------------------
 #P Geom=AllCheck Guess=TCheck SCRF=Check GenChk RM06/ChkBas NMR=ReadFC
  IOp(3/6=22)
 ----------------------------------------------------------------------

 J-coupling calculation 1
 ------------------------
 Redundant internal coordinates taken from checkpoint file:
 valine.chk
 Charge =  0 Multiplicity = 1

                         Standard orientation:
 ---------------------------------------------------------------------
 Center     Atomic      Atomic             Coordinates (Angstroms)
 Number     Number       Type             X           Y           Z
 ---------------------------------------------------------------------
      1          6           0        1.337814   -0.595049    0.090259
      2          6           0        0.071748    0.139554   -0.327619
      3          1           0       -0.121390   -0.019910   -1.394381
      4          6           0        0.220457    1.654240   -0.089232
      5          1           0        1.063708    1.984305   -0.708892
      6          6           0        0.539151    1.969719    1.360591
      7          1           0        1.472274    1.511698    1.692877
      8          1           0        0.622064    3.047653    1.506700
      9          1           0       -0.260365    1.609987    2.012930
     10          6           0       -1.021835    2.395025   -0.544839
     11          1           0       -0.876705    3.472667   -0.451565
     12          1           0       -1.278874    2.163731   -1.578762
     13          1           0       -1.879160    2.121354    0.073647
     14          8           0        1.387757   -1.256484    1.107907
     15          7           0       -1.030251   -0.440943    0.397460
     16          1           0       -0.765158   -0.917287    1.248519
     17          7           0        2.394647   -0.411009   -0.734280
     18          1           0        2.248862    0.110342   -1.581482
     19          6           0        3.692112   -0.988646   -0.483171
     20          1           0        3.969368   -1.700786   -1.261578
     21          1           0        4.463176   -0.220023   -0.419809
     22          1           0        3.640166   -1.514284    0.467106
     23          6           0       -2.197022   -0.774977   -0.222022
     24          6           0       -3.153478   -1.581876    0.611972
     25          1           0       -4.138466   -1.122086    0.558574
     26          1           0       -3.238144   -2.577810    0.177538
     27          1           0       -2.852254   -1.674258    1.654299
     28          8           0       -2.456951   -0.445961   -1.359608
 ---------------------------------------------------------------------

 SCF Done:  E(RM06) =  -574.299923387     A.U. after    9 cycles

  1  C    Isotropic =     1.3256   Anisotropy =   130.1706

  2  C    Isotropic =   122.0540   Anisotropy =    31.3123

  3  H    Isotropic =    27.6049   Anisotropy =     3.6262

  4  C    Isotropic =   143.5371   Anisotropy =    18.3982

  5  H    Isotropic =    30.3838   Anisotropy =     6.3908

  6  C    Isotropic =   161.7313   Anisotropy =    26.6109

  7  H    Isotropic =    31.2780   Anisotropy =     7.9299

  8  H    Isotropic =    31.4210   Anisotropy =     9.9331

  9  H    Isotropic =    31.2743   Anisotropy =     6.2637

 10  C    Isotropic =   156.6535   Anisotropy =    30.3587

 11  H    Isotropic =    31.2342   Anisotropy =     9.8937

 12  H    Isotropic =    30.6543   Anisotropy =     8.8578

 13  H    Isotropic =    31.2162   Anisotropy =     5.2897

 14  O    Isotropic =   -55.5121   Anisotropy =   639.2199

 15  N    Isotropic =   124.8872   Anisotropy =   130.8606

 16  H    Isotropic =    25.4459   Anisotropy =     5.6627

 17  N    Isotropic =   138.1323   Anisotropy =   107.0559

 18  H    Isotropic =    27.3015   Anisotropy =     7.3295

 19  C    Isotropic =   153.4722   Anisotropy =    39.4044

 20  H    Isotropic =    29.7169   Anisotropy =    10.7551

 21  H    Isotropic =    29.7312   Anisotropy =    10.1608

 22  H    Isotropic =    27.6827   Anisotropy =     5.9092

 23  C    Isotropic =     3.9527   Anisotropy =   127.9878

 24  C    Isotropic =   155.3711   Anisotropy =    42.3612

 25  H    Isotropic =    30.0375   Anisotropy =     7.0672

 26  H    Isotropic =    30.0334   Anisotropy =     7.0129

 27  H    Isotropic =    30.3801   Anisotropy =     5.5476

 28  O    Isotropic =   -84.6835   Anisotropy =   637.8028

 The electronic state is 1-A.
 Alpha  occ. eigenvalues --  -19.19257 -19.17307 -14.42928 -14.40883 -10.34984
 Alpha  occ. eigenvalues --  -10.33767 -10.28723 -10.27719 -10.25550 -10.23831
 Alpha  occ. eigenvalues --  -10.22850 -10.22337  -1.07592  -1.05568  -0.95391
 Alpha  occ. eigenvalues --   -0.94152  -0.82609  -0.76304  -0.74239  -0.69776
 Alpha  occ. eigenvalues --   -0.69223  -0.61065  -0.60575  -0.57683  -0.55472
 Alpha  occ. eigenvalues --   -0.50389  -0.49190  -0.48320  -0.47987  -0.46919
 Alpha  occ. eigenvalues --   -0.45343  -0.44660  -0.43871  -0.41476  -0.41059
 Alpha  occ. eigenvalues --   -0.40497  -0.40218  -0.39367  -0.39139  -0.37992
 Alpha  occ. eigenvalues --   -0.35776  -0.34913  -0.34752  -0.29071  -0.28891
 Alpha  occ. eigenvalues --   -0.27234  -0.26660
 Alpha virt. eigenvalues --    0.01306   0.02161   0.03213   0.03850   0.05041
 Alpha virt. eigenvalues --    0.05903   0.07550   0.08199   0.09334   0.09635
 Alpha virt. eigenvalues --    0.10205   0.10833   0.11265   0.11896   0.12213

 Mulliken atomic charges:
              1
     1  C    0.265429
     2  C   -0.119668
     3  H    0.226639
     4  C   -0.149551
     5  H    0.174626
     6  C   -0.445189
     7  H    0.156701
     8  H    0.140389
     9  H    0.150910
    10  C   -0.442643
    11  H    0.141451
    12  H    0.154402
    13  H    0.155485
    14  O   -0.391947
    15  N   -0.225829
    16  H    0.169700
    17  N   -0.167401
    18  H    0.138654
    19  C   -0.173588
    20  H    0.098634
    21  H    0.093808
    22  H    0.131411
    23  C    0.287795
    24  C   -0.317701
    25  H    0.115024
    26  H    0.117198
    27  H    0.102493
    28  O   -0.387234
 Sum of Mulliken atomic charges =   0.00000

 Dipole moment (field-independent basis, Debye):
    X=              2.6159    Y=              0.7159    Z=             -0.0652  Tot=              2.7129
 Quadrupole moment (field-independent basis, Debye-Ang):
   XX=            -69.0150   YY=            -72.9595   ZZ=            -76.8361
   XY=              3.0588   XZ=            -13.2277   YZ=              0.3338

 Normal termination of Gaussian 09 at Mon Apr  1 01:24:39 2013.
