                         Program Version 3.0.2 -  RELEASE  -
|  1> #
|  2> # g-tensor Calculation for an organic radical anion
|  3> #
|  4> #
|  5> #%pal nprocs 4 # any number (positive integer)
|  6> #end
|  7>
|  8> ! UKS BP SV(P) OPT TightSCF Grid4 NoFinalGrid Direct
|  9> * xyz 0 3
| 10> N          2.82596       -6.61797       -4.97003
| 11> C          2.85240       -6.69693       -3.48227
| 12> C          1.83097       -5.74047       -5.65051
| 13> C          2.76051       -5.27429       -2.87496
| 14> C          1.77317       -4.35290       -4.95725
| 15> C          1.57183       -4.46524       -3.42914
| 16> N          1.56178       -3.13881       -2.77351
| 17> C          2.30981       -5.52004       -7.10289
| 18> C          0.41226       -6.36618       -5.73411
| 19> C          4.21192       -7.29863       -3.06179
| 20> C          1.75139       -7.61945       -2.89231
| 21> O          2.81990       -7.86357       -5.51602
| 22> C          0.67042       -0.88428       -2.41309
| 23> C          0.47348       -2.21424       -3.16414
| 24> C         -0.41381        0.16911       -2.75778
| 25> C         -0.92096       -2.76155       -2.78116
| 26> N         -1.77184       -0.42366       -2.59339
| 27> C         -2.06407       -1.77836       -3.14345
| 28> O         -2.73099        0.46371       -2.97042
| 29> C         -0.16919        0.77181       -4.16721
| 30> C         -0.27676        1.32919       -1.74602
| 31> C         -3.35589       -2.29599       -2.47147
| 32> C         -2.32133       -1.78045       -4.67457
| 33> H          2.70663       -5.34463       -1.76566
| 34> H          3.68757       -4.70837       -3.12315
| 35> H          2.73492       -3.81626       -5.12247
| 36> H          0.97187       -3.75701       -5.43988
| 37> H          0.63543       -5.00006       -3.18792
| 38> H          1.52112       -3.28184       -1.73619
| 39> H          1.62366       -4.83837       -7.65150
| 40> H          3.32674       -5.07147       -7.11304
| 41> H          2.35600       -6.48141       -7.65805
| 42> H         -0.25677       -5.70805       -6.33005
| 43> H          0.43972       -7.35590       -6.23697
| 44> H         -0.08919       -6.48043       -4.76538
| 45> H          4.33161       -8.32972       -3.45833
| 46> H          5.04906       -6.68267       -3.45547
| 47> H          4.30374       -7.34287       -1.95444
| 48> H          1.87802       -7.70196       -1.79091
| 49> H          1.82061       -8.64456       -3.31346
| 50> H          0.72723       -7.25508       -3.03643
| 51> H          0.61660       -1.11027       -1.32350
| 52> H          1.68354       -0.46988       -2.61332
| 53> H          0.53785       -2.01269       -4.24782
| 54> H         -1.12949       -3.73711       -3.26663
| 55> H         -0.91727       -2.92913       -1.68016
| 56> H         -0.13974        0.03431       -4.97800
| 57> H         -0.93729        1.53507       -4.41399
| 58> H          0.82176        1.27468       -4.19607
| 59> H         -1.02353        2.12654       -1.94888
| 60> H         -0.44268        0.96373       -0.70950
| 61> H          0.73633        1.78499       -1.79549
| 62> H         -4.21993       -1.63853       -2.70706
| 63> H         -3.60150       -3.32411       -2.81693
| 64> H         -3.23685       -2.32045       -1.36675
| 65> H         -1.44179       -1.53354       -5.28129
| 66> H         -2.62350       -2.79761       -5.00615
| 67> H         -3.14387       -1.08434       -4.94310
| 68> *
| 69> %eprnmr gtensor 2
| 70> 	dtensor ss # SS and SO parts
| 71> end
| 72>
| 73> ! PDBFILE
| 74> ! XYZFILE
| 75>
| 76>                          ****END OF INPUT****
 Total Charge           Charge          ....    0
 Multiplicity           Mult            ....    3
 Number of Electrons    NEL             ....  180
FINAL SINGLE POINT ENERGY     -1020.726313260070
FINAL SINGLE POINT ENERGY     -1020.741084631998
FINAL SINGLE POINT ENERGY     -1020.749124477900
FINAL SINGLE POINT ENERGY     -1020.753139998857
FINAL SINGLE POINT ENERGY     -1020.755218697308
FINAL SINGLE POINT ENERGY     -1020.756031722156
FINAL SINGLE POINT ENERGY     -1020.756219050009
FINAL SINGLE POINT ENERGY     -1020.756364288564
FINAL SINGLE POINT ENERGY     -1020.756451338535
FINAL SINGLE POINT ENERGY     -1020.756550700610
FINAL SINGLE POINT ENERGY     -1020.756610033585
FINAL SINGLE POINT ENERGY     -1020.756651210659
FINAL SINGLE POINT ENERGY     -1020.756659432013
FINAL SINGLE POINT ENERGY     -1020.756662665844
                    ***********************HURRAY********************

CARTESIAN COORDINATES (ANGSTROEM)
---------------------------------
  N      2.766140   -6.714767   -4.930738
  C      2.702562   -6.774103   -3.426142
  C      2.061142   -5.680592   -5.771695
  C      2.560690   -5.354691   -2.836324
  C      1.958729   -4.339033   -5.012210
  C      1.525172   -4.471514   -3.543131
  N      1.498174   -3.158766   -2.885783
  C      2.910930   -5.483341   -7.043592
  C      0.668466   -6.227153   -6.173141
  C      4.027257   -7.397881   -2.942152
  C      1.526608   -7.691850   -3.011200
  O      3.092401   -7.801880   -5.524607
  C      0.679251   -0.871818   -2.616560
  C      0.366436   -2.268079   -3.170204
  C     -0.390242    0.198463   -2.924697
  C     -0.981116   -2.723267   -2.572482
  N     -1.775140   -0.346584   -2.675161
  C     -2.170498   -1.787471   -2.884938
  O     -2.729444    0.507883   -2.692667
  C     -0.301063    0.688093   -4.390852
  C     -0.205326    1.401502   -1.977973
  C     -3.330100   -2.082054   -1.912255
  C     -2.671570   -1.962403   -4.339442
  H      2.307482   -5.458086   -1.754686
  H      3.541389   -4.828698   -2.887591
  H      2.946143   -3.824217   -5.016901
  H      1.257277   -3.686045   -5.578842
  H      0.527542   -4.983944   -3.502119
  H      1.577356   -3.285241   -1.865046
  H      2.438863   -4.718034   -7.697940
  H      3.934648   -5.138364   -6.780273
  H      2.999702   -6.436567   -7.603073
  H      0.203089   -5.565878   -6.937367
  H      0.783783   -7.243719   -6.606253
  H     -0.026106   -6.291744   -5.308509
  H      4.147152   -8.421771   -3.350261
  H      4.893366   -6.786438   -3.277730
  H      4.038133   -7.444184   -1.831010
  H      1.566381   -7.899267   -1.918678
  H      1.604643   -8.655753   -3.558240
  H      0.537687   -7.238152   -3.237901
  H      0.794545   -0.960875   -1.509723
  H      1.660773   -0.527620   -3.010415
  H      0.275323   -2.206288   -4.277344
  H     -1.249133   -3.745311   -2.924445
  H     -0.853048   -2.788883   -1.465564
  H     -0.302750   -0.149982   -5.120649
  H     -1.168432    1.346642   -4.610390
  H      0.634488    1.269933   -4.544513
  H     -0.954775    2.188663   -2.196965
  H     -0.331889    1.088997   -0.918173
  H      0.815797    1.824577   -2.100815
  H     -4.194109   -1.420142   -2.124150
  H     -3.648255   -3.142810   -2.015707
  H     -3.012798   -1.910207   -0.860300
  H     -1.852525   -1.872271   -5.085067
  H     -3.142054   -2.962533   -4.467076
  H     -3.431578   -1.182669   -4.559768

 Multiplicity           Mult            ....    3
 Number of Electrons    NEL             ....  180
 Basis Dimension        Dim             ....  392

ORBITAL ENERGIES
----------------
                 SPIN UP ORBITALS
  NO   OCC          E(Eh)            E(eV)
   0   1.0000     -18.768655      -510.7211
   1   1.0000     -18.768365      -510.7132
   2   1.0000     -14.093576      -383.5057
   3   1.0000     -14.093406      -383.5011
   4   1.0000     -14.007273      -381.1573
   5   1.0000      -9.966769      -271.2096
   6   1.0000      -9.966755      -271.2092
   7   1.0000      -9.965357      -271.1711
   8   1.0000      -9.965298      -271.1696
   9   1.0000      -9.952610      -270.8243
  10   1.0000      -9.952065      -270.8095
  11   1.0000      -9.922190      -269.9965
  12   1.0000      -9.920294      -269.9449
  13   1.0000      -9.917903      -269.8798
  14   1.0000      -9.917159      -269.8596
  15   1.0000      -9.909826      -269.6601
  16   1.0000      -9.909029      -269.6384
  17   1.0000      -9.908285      -269.6181
  18   1.0000      -9.908022      -269.6110
  19   1.0000      -9.903638      -269.4917
  20   1.0000      -9.903176      -269.4791
  21   1.0000      -9.902307      -269.4555
  22   1.0000      -9.901966      -269.4462
  23   1.0000      -0.991548       -26.9814
  24   1.0000      -0.991422       -26.9780
  25   1.0000      -0.839426       -22.8419
  26   1.0000      -0.787241       -21.4219
  27   1.0000      -0.773921       -21.0595
  28   1.0000      -0.743704       -20.2372
  29   1.0000      -0.743575       -20.2337
  30   1.0000      -0.701548       -19.0901
  31   1.0000      -0.652351       -17.7514
  32   1.0000      -0.643784       -17.5183
  33   1.0000      -0.643748       -17.5173
  34   1.0000      -0.625143       -17.0110
  35   1.0000      -0.624508       -16.9937
  36   1.0000      -0.619947       -16.8696
  37   1.0000      -0.618906       -16.8413
  38   1.0000      -0.615438       -16.7469
  39   1.0000      -0.615299       -16.7431
  40   1.0000      -0.549384       -14.9495
  41   1.0000      -0.540679       -14.7126
  42   1.0000      -0.538135       -14.6434
  43   1.0000      -0.528831       -14.3902
  44   1.0000      -0.476807       -12.9746
  45   1.0000      -0.468062       -12.7366
  46   1.0000      -0.451761       -12.2930
  47   1.0000      -0.445716       -12.1285
  48   1.0000      -0.437625       -11.9084
  49   1.0000      -0.434702       -11.8289
  50   1.0000      -0.429008       -11.6739
  51   1.0000      -0.421246       -11.4627
  52   1.0000      -0.417420       -11.3586
  53   1.0000      -0.414776       -11.2866
  54   1.0000      -0.406526       -11.0621
  55   1.0000      -0.404896       -11.0178
  56   1.0000      -0.392425       -10.6784
  57   1.0000      -0.387792       -10.5524
  58   1.0000      -0.387014       -10.5312
  59   1.0000      -0.383390       -10.4326
  60   1.0000      -0.374971       -10.2035
  61   1.0000      -0.368911       -10.0386
  62   1.0000      -0.365563        -9.9475
  63   1.0000      -0.363220        -9.8837
  64   1.0000      -0.356159        -9.6916
  65   1.0000      -0.350304        -9.5322
  66   1.0000      -0.349865        -9.5203
  67   1.0000      -0.348508        -9.4834
  68   1.0000      -0.332836        -9.0569
  69   1.0000      -0.332122        -9.0375
  70   1.0000      -0.331667        -9.0251
  71   1.0000      -0.331279        -9.0146
  72   1.0000      -0.329740        -8.9727
  73   1.0000      -0.328051        -8.9267
  74   1.0000      -0.321813        -8.7570
  75   1.0000      -0.320825        -8.7301
  76   1.0000      -0.319069        -8.6823
  77   1.0000      -0.314314        -8.5529
  78   1.0000      -0.305808        -8.3215
  79   1.0000      -0.302919        -8.2428
  80   1.0000      -0.302433        -8.2296
  81   1.0000      -0.301678        -8.2091
  82   1.0000      -0.293398        -7.9838
  83   1.0000      -0.291615        -7.9352
  84   1.0000      -0.286465        -7.7951
  85   1.0000      -0.281707        -7.6656
  86   1.0000      -0.205701        -5.5974
  87   1.0000      -0.205606        -5.5948
  88   1.0000      -0.193873        -5.2755
  89   1.0000      -0.147521        -4.0142
  90   1.0000      -0.146941        -3.9985
  91   0.0000       0.007591         0.2066
  92   0.0000       0.021551         0.5864
  93   0.0000       0.029435         0.8010
  94   0.0000       0.032551         0.8858
  95   0.0000       0.043763         1.1909

                 SPIN DOWN ORBITALS
  NO   OCC          E(Eh)            E(eV)
   0   1.0000     -18.756466      -510.3894
   1   1.0000     -18.756188      -510.3818
   2   1.0000     -14.084125      -383.2485
   3   1.0000     -14.083927      -383.2431
   4   1.0000     -14.007263      -381.1570
   5   1.0000      -9.967092      -271.2184
   6   1.0000      -9.967064      -271.2176
   7   1.0000      -9.965665      -271.1795
   8   1.0000      -9.965621      -271.1783
   9   1.0000      -9.952623      -270.8246
  10   1.0000      -9.952078      -270.8098
  11   1.0000      -9.922162      -269.9957
  12   1.0000      -9.920263      -269.9441
  13   1.0000      -9.917873      -269.8790
  14   1.0000      -9.917133      -269.8589
  15   1.0000      -9.909289      -269.6455
  16   1.0000      -9.908489      -269.6237
  17   1.0000      -9.907745      -269.6034
  18   1.0000      -9.907484      -269.5963
  19   1.0000      -9.903415      -269.4856
  20   1.0000      -9.902942      -269.4727
  21   1.0000      -9.902083      -269.4494
  22   1.0000      -9.901728      -269.4397
  23   1.0000      -0.973046       -26.4779
  24   1.0000      -0.972913       -26.4743
  25   1.0000      -0.839123       -22.8337
  26   1.0000      -0.781561       -21.2674
  27   1.0000      -0.766759       -20.8646
  28   1.0000      -0.742682       -20.2094
  29   1.0000      -0.742558       -20.2060
  30   1.0000      -0.697701       -18.9854
  31   1.0000      -0.650770       -17.7084
  32   1.0000      -0.633826       -17.2473
  33   1.0000      -0.632560       -17.2128
  34   1.0000      -0.623829       -16.9752
  35   1.0000      -0.623135       -16.9564
  36   1.0000      -0.619404       -16.8548
  37   1.0000      -0.618425       -16.8282
  38   1.0000      -0.614729       -16.7276
  39   1.0000      -0.614659       -16.7257
  40   1.0000      -0.547918       -14.9096
  41   1.0000      -0.538490       -14.6531
  42   1.0000      -0.535387       -14.5686
  43   1.0000      -0.527688       -14.3591
  44   1.0000      -0.474779       -12.9194
  45   1.0000      -0.466082       -12.6827
  46   1.0000      -0.449017       -12.2184
  47   1.0000      -0.443627       -12.0717
  48   1.0000      -0.435334       -11.8461
  49   1.0000      -0.428980       -11.6731
  50   1.0000      -0.422027       -11.4839
  51   1.0000      -0.412884       -11.2351
  52   1.0000      -0.411104       -11.1867
  53   1.0000      -0.406678       -11.0663
  54   1.0000      -0.400114       -10.8877
  55   1.0000      -0.399027       -10.8581
  56   1.0000      -0.389233       -10.5916
  57   1.0000      -0.387387       -10.5413
  58   1.0000      -0.386323       -10.5124
  59   1.0000      -0.380603       -10.3567
  60   1.0000      -0.373010       -10.1501
  61   1.0000      -0.366630        -9.9765
  62   1.0000      -0.360634        -9.8134
  63   1.0000      -0.358949        -9.7675
  64   1.0000      -0.352377        -9.5887
  65   1.0000      -0.349454        -9.5091
  66   1.0000      -0.348996        -9.4967
  67   1.0000      -0.346257        -9.4221
  68   1.0000      -0.331759        -9.0276
  69   1.0000      -0.329845        -8.9755
  70   1.0000      -0.329519        -8.9667
  71   1.0000      -0.328594        -8.9415
  72   1.0000      -0.326415        -8.8822
  73   1.0000      -0.326329        -8.8799
  74   1.0000      -0.321225        -8.7410
  75   1.0000      -0.319322        -8.6892
  76   1.0000      -0.312266        -8.4972
  77   1.0000      -0.308977        -8.4077
  78   1.0000      -0.304426        -8.2839
  79   1.0000      -0.301527        -8.2050
  80   1.0000      -0.301017        -8.1911
  81   1.0000      -0.294002        -8.0002
  82   1.0000      -0.291866        -7.9421
  83   1.0000      -0.281412        -7.6576
  84   1.0000      -0.272557        -7.4167
  85   1.0000      -0.271650        -7.3920
  86   1.0000      -0.195568        -5.3217
  87   1.0000      -0.195350        -5.3158
  88   1.0000      -0.193692        -5.2706
  89   0.0000      -0.091664        -2.4943
  90   0.0000      -0.091056        -2.4778
  91   0.0000       0.008132         0.2213
  92   0.0000       0.021851         0.5946
  93   0.0000       0.030056         0.8179

MULLIKEN ATOMIC CHARGES AND SPIN POPULATIONS
--------------------------------------------
   0 N :   -0.036965    0.438325
   1 C :   -0.074207   -0.009178
   2 C :   -0.077433   -0.009351
   3 C :   -0.121925    0.002455
   4 C :   -0.101542    0.002313
   5 C :   -0.039605   -0.001323
   6 N :   -0.301819    0.000213
   7 C :   -0.231640    0.007307
   8 C :   -0.252575    0.029826
   9 C :   -0.231576    0.007087
  10 C :   -0.253874    0.029780
  11 O :   -0.279312    0.499724
  12 C :   -0.074510    0.002357
  13 C :   -0.083484   -0.001362
  14 C :   -0.076247   -0.008921
  15 C :   -0.106013    0.002335
  16 N :   -0.036974    0.437601
  17 C :   -0.075430   -0.008860
  18 O :   -0.279151    0.500275
  19 C :   -0.253923    0.029814
  20 C :   -0.233183    0.006572
  21 C :   -0.231976    0.006491
  22 C :   -0.254430    0.029674
  23 H :    0.084723   -0.000911
  24 H :    0.086145    0.000956
  25 H :    0.079785    0.000863
  26 H :    0.096230   -0.000940
  27 H :    0.063167    0.000315
  28 H :    0.204870   -0.000045
  29 H :    0.100243   -0.000690
  30 H :    0.104792    0.001740
  31 H :    0.128407   -0.001469
  32 H :    0.103696    0.003279
  33 H :    0.124746   -0.000726
  34 H :    0.108961   -0.000851
  35 H :    0.129231   -0.001433
  36 H :    0.105615    0.001721
  37 H :    0.099916   -0.000718
  38 H :    0.103120    0.003386
  39 H :    0.125548   -0.000689
  40 H :    0.111690   -0.000864
  41 H :    0.067086    0.001109
  42 H :    0.094270   -0.000909
  43 H :    0.074963    0.000333
  44 H :    0.097848   -0.000886
  45 H :    0.063351    0.001207
  46 H :    0.111085   -0.000911
  47 H :    0.124468   -0.000618
  48 H :    0.105758    0.003430
  49 H :    0.128332   -0.001383
  50 H :    0.103772    0.001744
  51 H :    0.102228   -0.000772
  52 H :    0.129153   -0.001403
  53 H :    0.100107   -0.000773
  54 H :    0.104081    0.001749
  55 H :    0.110116   -0.000885
  56 H :    0.104585    0.003496
  57 H :    0.125709   -0.000605
Sum of atomic charges         :   -0.0000000

LOEWDIN ATOMIC CHARGES AND SPIN POPULATIONS
-------------------------------------------
   0 N :    0.099935    0.426897
   1 C :   -0.040959   -0.000929
   2 C :   -0.041564   -0.001000
   3 C :   -0.204394    0.002003
   4 C :   -0.205395    0.001871
   5 C :   -0.088308    0.000485
   6 N :   -0.236666    0.000528
   7 C :   -0.317670    0.010575
   8 C :   -0.322861    0.026451
   9 C :   -0.317804    0.010401
  10 C :   -0.323085    0.026402
  11 O :   -0.239032    0.495378
  12 C :   -0.202745    0.002009
  13 C :   -0.091740    0.000454
  14 C :   -0.041604   -0.000663
  15 C :   -0.216241    0.002063
  16 N :    0.098230    0.426257
  17 C :   -0.042240   -0.000605
  18 O :   -0.238828    0.495876
  19 C :   -0.321796    0.026373
  20 C :   -0.318195    0.009963
  21 C :   -0.318394    0.009908
  22 C :   -0.322168    0.026271
  23 H :    0.116522   -0.000574
  24 H :    0.121010    0.000449
  25 H :    0.120628    0.000401
  26 H :    0.118068   -0.000572
  27 H :    0.091066    0.000098
  28 H :    0.206852   -0.000042
  29 H :    0.118091   -0.000675
  30 H :    0.118781    0.000370
  31 H :    0.127617   -0.000827
  32 H :    0.119980    0.002344
  33 H :    0.127644    0.000063
  34 H :    0.111833   -0.000605
  35 H :    0.128210   -0.000817
  36 H :    0.119151    0.000357
  37 H :    0.118059   -0.000692
  38 H :    0.119925    0.002430
  39 H :    0.128073    0.000097
  40 H :    0.112418   -0.000598
  41 H :    0.112380    0.000518
  42 H :    0.125182   -0.000602
  43 H :    0.109607    0.000098
  44 H :    0.118836   -0.000543
  45 H :    0.111630    0.000573
  46 H :    0.112447   -0.000610
  47 H :    0.127456    0.000147
  48 H :    0.121618    0.002479
  49 H :    0.127829   -0.000799
  50 H :    0.117985    0.000371
  51 H :    0.119074   -0.000722
  52 H :    0.128172   -0.000806
  53 H :    0.117919   -0.000724
  54 H :    0.118143    0.000372
  55 H :    0.112546   -0.000601
  56 H :    0.120433    0.002514
  57 H :    0.128339    0.000157

  Mayer bond orders larger than 0.1
B(  0-N ,  1-C ) :   0.8876 B(  0-N ,  2-C ) :   0.8847 B(  0-N , 11-O ) :   1.4493
B(  1-C ,  3-C ) :   1.0367 B(  1-C ,  9-C ) :   1.0770 B(  1-C , 10-C ) :   1.0663
B(  2-C ,  4-C ) :   1.0270 B(  2-C ,  7-C ) :   1.0753 B(  2-C ,  8-C ) :   1.0655
B(  3-C ,  5-C ) :   1.0683 B(  3-C , 23-H ) :   0.9033 B(  3-C , 24-H ) :   0.8909
B(  4-C ,  5-C ) :   1.0695 B(  4-C , 25-H ) :   0.8873 B(  4-C , 26-H ) :   0.8978
B(  5-C ,  6-N ) :   1.0439 B(  5-C , 27-H ) :   0.8725 B(  6-N , 13-C ) :   1.0604
B(  6-N , 28-H ) :   0.8541 B(  7-C , 29-H ) :   0.9414 B(  7-C , 30-H ) :   0.9393
B(  7-C , 31-H ) :   0.9320 B(  8-C , 32-H ) :   0.9399 B(  8-C , 33-H ) :   0.9324
B(  8-C , 34-H ) :   0.9339 B(  9-C , 35-H ) :   0.9324 B(  9-C , 36-H ) :   0.9391
B(  9-C , 37-H ) :   0.9409 B( 10-C , 38-H ) :   0.9402 B( 10-C , 39-H ) :   0.9322
B( 10-C , 40-H ) :   0.9321 B( 12-C , 13-C ) :   1.0797 B( 12-C , 14-C ) :   1.0272
B( 12-C , 41-H ) :   0.8927 B( 12-C , 42-H ) :   0.9036 B( 13-C , 15-C ) :   1.0534
B( 13-C , 43-H ) :   0.8763 B( 14-C , 16-N ) :   0.8814 B( 14-C , 19-C ) :   1.0683
B( 14-C , 20-C ) :   1.0767 B( 15-C , 17-C ) :   1.0253 B( 15-C , 44-H ) :   0.8986
B( 15-C , 45-H ) :   0.8860 B( 16-N , 17-C ) :   0.8865 B( 16-N , 18-O ) :   1.4492
B( 17-C , 21-C ) :   1.0735 B( 17-C , 22-C ) :   1.0688 B( 19-C , 46-H ) :   0.9327
B( 19-C , 47-H ) :   0.9324 B( 19-C , 48-H ) :   0.9405 B( 20-C , 49-H ) :   0.9325
B( 20-C , 50-H ) :   0.9388 B( 20-C , 51-H ) :   0.9409 B( 21-C , 52-H ) :   0.9315
B( 21-C , 53-H ) :   0.9413 B( 21-C , 54-H ) :   0.9390 B( 22-C , 55-H ) :   0.9336
B( 22-C , 56-H ) :   0.9397 B( 22-C , 57-H ) :   0.9324

FINAL SINGLE POINT ENERGY     -1020.756663512529

DIPOLE MOMENT
-------------
                                X             Y             Z
Electronic contribution:      1.34765       0.59233       0.92730
Nuclear contribution   :     -1.20418      -0.59910      -0.44975
                        -----------------------------------------
Total Dipole Moment    :      0.14347      -0.00677       0.47755
                        -----------------------------------------
Magnitude (a.u.)       :      0.49868
Magnitude (Debye)      :      1.26755

                             ****ORCA TERMINATED NORMALLY****
TOTAL RUN TIME: 0 days 1 hours 43 minutes 24 seconds 384 msec
