                         Program Version 3.0.1 -  RELEASE  -
|  1> ! UKS B3LYP 3-21G
|  2> %coords
|  3>  CTyp   xyz
|  4>  Charge 1
|  5>  Mult   2
|  6>  Units  Angs
|  7>   coords
|  8>    C      -0.66699   3.93978   0.00000
|  9>    C       0.51504   4.68037   0.00000
| 10>    C       1.75010   4.00602   0.00000
| 11>    C       1.80453   2.60332   0.00000
| 12>    C       0.62497   1.82725   0.00000
| 13>    C       0.62835   0.36343   0.00000
| 14>    C       1.83310  -0.37283   0.00000
| 15>    C       1.83639  -1.76586   0.00000
| 16>    C       0.62835  -2.51934   0.00000
| 17>    C       0.66699  -3.93978   0.00000
| 18>    C      -0.51504  -4.68037   0.00000
| 19>    C      -1.75010  -4.00602   0.00000
| 20>    C      -1.80453  -2.60332   0.00000
| 21>    C      -0.62497  -1.82725   0.00000
| 22>    C      -0.62835  -0.36343   0.00000
| 23>    C      -1.83310   0.37283   0.00000
| 24>    C      -1.83639   1.76586   0.00000
| 25>    C      -0.62835   2.51934   0.00000
| 26>    H      -1.63057   4.44129   0.00000
| 27>    H       0.48432   5.76491   0.00000
| 28>    H       2.67553   4.57350   0.00000
| 29>    H       2.78075   2.13296   0.00000
| 30>    H       2.78656   0.14010   0.00000
| 31>    H       2.78477  -2.29635   0.00000
| 32>    H       1.63057  -4.44129   0.00000
| 33>    H      -0.48432  -5.76491   0.00000
| 34>    H      -2.67553  -4.57350   0.00000
| 35>    H      -2.78075  -2.13296   0.00000
| 36>    H      -2.78656  -0.14010   0.00000
| 37>    H      -2.78477   2.29635   0.00000
| 38>   end
| 39> end
| 40>
| 41> %eprnmr
| 42>  ori IGLO
| 43>  LocMet PM
| 44>  gtensor 1
| 45>  Nuclei = all C { aiso, adip, shift, fgrad }
| 46>  Nuclei = all H { aiso, adip, shift, fgrad }
| 47> end
| 48>
| 49>
| 50>                          ****END OF INPUT****

CARTESIAN COORDINATES (ANGSTROEM)
---------------------------------
  C     -0.666990    3.939780    0.000000
  C      0.515040    4.680370    0.000000
  C      1.750100    4.006020    0.000000
  C      1.804530    2.603320    0.000000
  C      0.624970    1.827250    0.000000
  C      0.628350    0.363430    0.000000
  C      1.833100   -0.372830    0.000000
  C      1.836390   -1.765860    0.000000
  C      0.628350   -2.519340    0.000000
  C      0.666990   -3.939780    0.000000
  C     -0.515040   -4.680370    0.000000
  C     -1.750100   -4.006020    0.000000
  C     -1.804530   -2.603320    0.000000
  C     -0.624970   -1.827250    0.000000
  C     -0.628350   -0.363430    0.000000
  C     -1.833100    0.372830    0.000000
  C     -1.836390    1.765860    0.000000
  C     -0.628350    2.519340    0.000000
  H     -1.630570    4.441290    0.000000
  H      0.484320    5.764910    0.000000
  H      2.675530    4.573500    0.000000
  H      2.780750    2.132960    0.000000
  H      2.786560    0.140100    0.000000
  H      2.784770   -2.296350    0.000000
  H      1.630570   -4.441290    0.000000
  H     -0.484320   -5.764910    0.000000
  H     -2.675530   -4.573500    0.000000
  H     -2.780750   -2.132960    0.000000
  H     -2.786560   -0.140100    0.000000
  H     -2.784770    2.296350    0.000000

 Total Charge           Charge          ....    1
 Multiplicity           Mult            ....    2
 Number of Electrons    NEL             ....  119
 Basis Dimension        Dim             ....  186

ORBITAL ENERGIES
----------------
                 SPIN UP ORBITALS
  NO   OCC          E(Eh)            E(eV)
   0   1.0000     -10.316707      -280.7319
   1   1.0000     -10.315550      -280.7004
   2   1.0000     -10.303695      -280.3778
   3   1.0000     -10.303683      -280.3775
   4   1.0000     -10.297717      -280.2151
   5   1.0000     -10.297644      -280.2131
   6   1.0000     -10.292311      -280.0680
   7   1.0000     -10.292191      -280.0648
   8   1.0000     -10.291390      -280.0429
   9   1.0000     -10.291348      -280.0418
  10   1.0000     -10.284326      -279.8507
  11   1.0000     -10.284311      -279.8503
  12   1.0000     -10.283993      -279.8417
  13   1.0000     -10.283978      -279.8413
  14   1.0000     -10.279112      -279.7088
  15   1.0000     -10.279109      -279.7088
  16   1.0000     -10.272377      -279.5256
  17   1.0000     -10.272375      -279.5255
  18   1.0000      -1.046425       -28.4747
  19   1.0000      -1.018031       -27.7020
  20   1.0000      -0.983161       -26.7532
  21   1.0000      -0.969476       -26.3808
  22   1.0000      -0.928359       -25.2619
  23   1.0000      -0.922178       -25.0937
  24   1.0000      -0.890638       -24.2355
  25   1.0000      -0.878287       -23.8994
  26   1.0000      -0.867663       -23.6103
  27   1.0000      -0.793270       -21.5860
  28   1.0000      -0.787688       -21.4341
  29   1.0000      -0.782879       -21.3032
  30   1.0000      -0.752580       -20.4788
  31   1.0000      -0.740691       -20.1552
  32   1.0000      -0.696000       -18.9391
  33   1.0000      -0.683561       -18.6006
  34   1.0000      -0.668341       -18.1865
  35   1.0000      -0.658395       -17.9158
  36   1.0000      -0.637572       -17.3492
  37   1.0000      -0.618476       -16.8296
  38   1.0000      -0.614420       -16.7192
  39   1.0000      -0.596184       -16.2230
  40   1.0000      -0.586976       -15.9724
  41   1.0000      -0.582851       -15.8602
  42   1.0000      -0.574077       -15.6214
  43   1.0000      -0.565533       -15.3889
  44   1.0000      -0.564976       -15.3738
  45   1.0000      -0.553520       -15.0620
  46   1.0000      -0.549678       -14.9575
  47   1.0000      -0.530935       -14.4475
  48   1.0000      -0.528976       -14.3942
  49   1.0000      -0.505522       -13.7560
  50   1.0000      -0.495555       -13.4847
  51   1.0000      -0.486136       -13.2284
  52   1.0000      -0.485275       -13.2050
  53   1.0000      -0.476703       -12.9717
  54   1.0000      -0.476227       -12.9588
  55   1.0000      -0.437333       -11.9004
  56   1.0000      -0.421519       -11.4701
  57   1.0000      -0.391332       -10.6487
  58   1.0000      -0.374808       -10.1990
  59   1.0000      -0.359787        -9.7903
  60   0.0000      -0.212501        -5.7824
  61   0.0000      -0.177802        -4.8382
  62   0.0000      -0.167273        -4.5517
  63   0.0000      -0.122891        -3.3440
  64   0.0000      -0.119864        -3.2617

                 SPIN DOWN ORBITALS
  NO   OCC          E(Eh)            E(eV)
   0   1.0000     -10.315211      -280.6912
   1   1.0000     -10.314048      -280.6595
   2   1.0000     -10.300667      -280.2954
   3   1.0000     -10.300653      -280.2950
   4   1.0000     -10.297825      -280.2181
   5   1.0000     -10.297752      -280.2161
   6   1.0000     -10.292286      -280.0673
   7   1.0000     -10.292258      -280.0666
   8   1.0000     -10.292063      -280.0613
   9   1.0000     -10.291926      -280.0575
  10   1.0000     -10.283371      -279.8247
  11   1.0000     -10.283350      -279.8242
  12   1.0000     -10.282173      -279.7922
  13   1.0000     -10.282165      -279.7919
  14   1.0000     -10.278171      -279.6832
  15   1.0000     -10.278169      -279.6832
  16   1.0000     -10.272660      -279.5333
  17   1.0000     -10.272658      -279.5332
  18   1.0000      -1.042980       -28.3809
  19   1.0000      -1.015783       -27.6409
  20   1.0000      -0.979816       -26.6621
  21   1.0000      -0.964814       -26.2539
  22   1.0000      -0.923379       -25.1264
  23   1.0000      -0.920400       -25.0454
  24   1.0000      -0.886812       -24.1314
  25   1.0000      -0.877649       -23.8821
  26   1.0000      -0.860611       -23.4184
  27   1.0000      -0.789485       -21.4830
  28   1.0000      -0.785792       -21.3825
  29   1.0000      -0.780589       -21.2409
  30   1.0000      -0.750332       -20.4176
  31   1.0000      -0.738552       -20.0970
  32   1.0000      -0.694245       -18.8914
  33   1.0000      -0.682123       -18.5615
  34   1.0000      -0.666722       -18.1424
  35   1.0000      -0.655961       -17.8496
  36   1.0000      -0.635793       -17.3008
  37   1.0000      -0.617397       -16.8002
  38   1.0000      -0.612990       -16.6803
  39   1.0000      -0.595762       -16.2115
  40   1.0000      -0.585826       -15.9411
  41   1.0000      -0.581443       -15.8219
  42   1.0000      -0.572793       -15.5865
  43   1.0000      -0.563789       -15.3415
  44   1.0000      -0.556426       -15.1411
  45   1.0000      -0.552139       -15.0245
  46   1.0000      -0.548286       -14.9196
  47   1.0000      -0.530031       -14.4229
  48   1.0000      -0.523114       -14.2347
  49   1.0000      -0.504389       -13.7251
  50   1.0000      -0.495072       -13.4716
  51   1.0000      -0.484776       -13.1914
  52   1.0000      -0.476221       -12.9586
  53   1.0000      -0.476070       -12.9545
  54   1.0000      -0.461742       -12.5646
  55   1.0000      -0.422004       -11.4833
  56   1.0000      -0.417439       -11.3591
  57   1.0000      -0.376183       -10.2365
  58   1.0000      -0.374123       -10.1804
  59   0.0000      -0.310561        -8.4508
  60   0.0000      -0.195263        -5.3134
  61   0.0000      -0.172956        -4.7064
  62   0.0000      -0.156772        -4.2660
  63   0.0000      -0.114324        -3.1109

MULLIKEN ATOMIC CHARGES AND SPIN POPULATIONS
--------------------------------------------
   0 C :   -0.151035    0.149769
   1 C :   -0.170852   -0.033019
   2 C :   -0.151207    0.075099
   3 C :   -0.170900    0.075531
   4 C :    0.006300   -0.014310
   5 C :    0.011534    0.114675
   6 C :   -0.170819   -0.010908
   7 C :   -0.129617    0.243467
   8 C :   -0.007916   -0.075576
   9 C :   -0.151035    0.149769
  10 C :   -0.170852   -0.033019
  11 C :   -0.151207    0.075099
  12 C :   -0.170900    0.075531
  13 C :    0.006300   -0.014310
  14 C :    0.011534    0.114675
  15 C :   -0.170819   -0.010908
  16 C :   -0.129617    0.243467
  17 C :   -0.007916   -0.075576
  18 H :    0.235193   -0.006456
  19 H :    0.246257    0.000657
  20 H :    0.244213   -0.003791
  21 H :    0.227025   -0.003579
  22 H :    0.235936   -0.000868
  23 H :    0.245889   -0.010691
  24 H :    0.235193   -0.006456
  25 H :    0.246257    0.000657
  26 H :    0.244213   -0.003791
  27 H :    0.227025   -0.003579
  28 H :    0.235936   -0.000868
  29 H :    0.245889   -0.010691
Sum of atomic charges         :    1.0000000

LOEWDIN ATOMIC CHARGES AND SPIN POPULATIONS
-------------------------------------------
   0 C :   -0.029023    0.123842
   1 C :   -0.065060   -0.015908
   2 C :   -0.042150    0.067887
   3 C :   -0.048043    0.066670
   4 C :   -0.009105   -0.002373
   5 C :    0.031456    0.101338
   6 C :   -0.062463    0.008923
   7 C :    0.003870    0.203982
   8 C :   -0.027352   -0.039584
   9 C :   -0.029023    0.123842
  10 C :   -0.065060   -0.015908
  11 C :   -0.042150    0.067887
  12 C :   -0.048043    0.066670
  13 C :   -0.009105   -0.002373
  14 C :    0.031456    0.101338
  15 C :   -0.062463    0.008923
  16 C :    0.003870    0.203982
  17 C :   -0.027352   -0.039584
  18 H :    0.123850   -0.003941
  19 H :    0.129162    0.000381
  20 H :    0.127771   -0.002237
  21 H :    0.115936   -0.002060
  22 H :    0.121971   -0.000462
  23 H :    0.129176   -0.006457
  24 H :    0.123850   -0.003941
  25 H :    0.129162    0.000381
  26 H :    0.127771   -0.002237
  27 H :    0.115936   -0.002060
  28 H :    0.121971   -0.000462
  29 H :    0.129176   -0.006457

  Mayer bond orders larger than 0.1
B(  0-C ,  1-C ) :   1.4171 B(  0-C , 17-C ) :   1.2542 B(  0-C , 18-H ) :   0.9135
B(  1-C ,  2-C ) :   1.3579 B(  1-C , 19-H ) :   0.9091 B(  2-C ,  3-C ) :   1.3781
B(  2-C , 20-H ) :   0.9093 B(  3-C ,  4-C ) :   1.3396 B(  3-C , 21-H ) :   0.9050
B(  4-C ,  5-C ) :   1.1249 B(  4-C , 17-C ) :   1.2318 B(  5-C ,  6-C ) :   1.3316
B(  5-C , 14-C ) :   1.1936 B(  6-C ,  7-C ) :   1.4039 B(  6-C , 22-H ) :   0.9004
B(  7-C ,  8-C ) :   1.2208 B(  7-C , 23-H ) :   0.9073 B(  8-C ,  9-C ) :   1.2542
B(  8-C , 13-C ) :   1.2318 B(  9-C , 10-C ) :   1.4171 B(  9-C , 24-H ) :   0.9135
B( 10-C , 11-C ) :   1.3579 B( 10-C , 25-H ) :   0.9091 B( 11-C , 12-C ) :   1.3781
B( 11-C , 26-H ) :   0.9093 B( 12-C , 13-C ) :   1.3396 B( 12-C , 27-H ) :   0.9050
B( 13-C , 14-C ) :   1.1249 B( 14-C , 15-C ) :   1.3316 B( 15-C , 16-C ) :   1.4039
B( 15-C , 28-H ) :   0.9004 B( 16-C , 17-C ) :   1.2208 B( 16-C , 29-H ) :   0.9073

FINAL SINGLE POINT ENERGY      -688.663090626138

DIPOLE MOMENT
-------------
                                X             Y             Z
Electronic contribution:     -0.00000       0.00000      -0.00000
Nuclear contribution   :      0.00000       0.00000       0.00000
                        -----------------------------------------
Total Dipole Moment    :     -0.00000       0.00000      -0.00000
                        -----------------------------------------
Magnitude (a.u.)       :      0.00000
Magnitude (Debye)      :      0.00000

                             ****ORCA TERMINATED NORMALLY****
TOTAL RUN TIME: 0 days 0 hours 3 minutes 5 seconds 663 msec
