                         Program Version 3.0.1 -  RELEASE  -
|  1> ! UKS B3LYP cc-pVDZ TightSCF Grid5
|  2> %coords
|  3>  CTyp   xyz
|  4>  Charge 0
|  5>  Mult   1
|  6>  Units  Angs
|  7>   coords
|  8>    C                     0.20963   0.33658   3.08229
|  9>    C                    -1.33731   0.56431   3.06632
| 10>    C                    -1.59904   1.14374   1.65882
| 11>    C                     0.62678   1.12883   1.83179
| 12>    C                    -1.20792   0.24826   0.46842
| 13>    C                     0.29012   0.11756   0.72208
| 14>    C                    -0.46750   2.18578   1.65750
| 15>    C                    -0.36316   2.99229   0.34973
| 16>    C                    -0.54250   3.21904   2.79695
| 17>    O                     1.08315  -0.68946   0.17127
| 18>    C                     2.08416   1.62633   1.82091
| 19>    H                     0.53179  -0.66886   2.90850
| 20>    H                     0.58571   0.65458   4.03220
| 21>    H                    -1.58271   1.36806   3.72864
| 22>    H                    -1.88749  -0.30466   3.36142
| 23>    H                    -2.60907   1.48095   1.55380
| 24>    H                    -1.22629   3.61603   0.24553
| 25>    H                     0.51611   3.60149   0.37558
| 26>    H                    -0.30681   2.31973  -0.48056
| 27>    H                    -0.61769   2.71038   3.73530
| 28>    H                    -1.40214   3.84093   2.65847
| 29>    H                     0.34022   3.82372   2.78876
| 30>    H                     2.28392   2.12497   0.89552
| 31>    H                     2.23473   2.30705   2.63261
| 32>    H                     2.74643   0.79265   1.92705
| 33>    H                    -1.38858   0.76685  -0.44990
| 34>    H                    -1.72421  -0.68805   0.42762
| 35>   end
| 36> end
| 37>
| 38> %eprnmr
| 39>  ori IGLO
| 40>  LocMet PM
| 41>  gtensor 1
| 42>  Nuclei = all C { aiso, adip, shift, fgrad }
| 43>  Nuclei = all H { aiso, adip, shift, fgrad }
| 44>  Nuclei = all O { aiso, adip, shift, fgrad }
| 45> end
| 46>
| 47>
| 48>                          ****END OF INPUT****

CARTESIAN COORDINATES (ANGSTROEM)
---------------------------------
  C      0.209630    0.336580    3.082290
  C     -1.337310    0.564310    3.066320
  C     -1.599040    1.143740    1.658820
  C      0.626780    1.128830    1.831790
  C     -1.207920    0.248260    0.468420
  C      0.290120    0.117560    0.722080
  C     -0.467500    2.185780    1.657500
  C     -0.363160    2.992290    0.349730
  C     -0.542500    3.219040    2.796950
  O      1.083150   -0.689460    0.171270
  C      2.084160    1.626330    1.820910
  H      0.531790   -0.668860    2.908500
  H      0.585710    0.654580    4.032200
  H     -1.582710    1.368060    3.728640
  H     -1.887490   -0.304660    3.361420
  H     -2.609070    1.480950    1.553800
  H     -1.226290    3.616030    0.245530
  H      0.516110    3.601490    0.375580
  H     -0.306810    2.319730   -0.480560
  H     -0.617690    2.710380    3.735300
  H     -1.402140    3.840930    2.658470
  H      0.340220    3.823720    2.788760
  H      2.283920    2.124970    0.895520
  H      2.234730    2.307050    2.632610
  H      2.746430    0.792650    1.927050
  H     -1.388580    0.766850   -0.449900
  H     -1.724210   -0.688050    0.427620

 Total Charge           Charge          ....    0
 Multiplicity           Mult            ....    1
 Number of Electrons    NEL             ....   84
 Basis Dimension        Dim             ....  234

ORBITAL ENERGIES
----------------
                 SPIN UP ORBITALS
  NO   OCC          E(Eh)            E(eV)
   0   1.0000     -19.124808      -520.4125
   1   1.0000     -10.265525      -279.3391
   2   1.0000     -10.192075      -277.3405
   3   1.0000     -10.191032      -277.3121
   4   1.0000     -10.186473      -277.1880
   5   1.0000     -10.183341      -277.1028
   6   1.0000     -10.181272      -277.0465
   7   1.0000     -10.177743      -276.9505
   8   1.0000     -10.171133      -276.7706
   9   1.0000     -10.170416      -276.7511
  10   1.0000     -10.167332      -276.6672
  11   1.0000      -1.008746       -27.4494
  12   1.0000      -0.894452       -24.3393
  13   1.0000      -0.769388       -20.9361
  14   1.0000      -0.766217       -20.8498
  15   1.0000      -0.746573       -20.3153
  16   1.0000      -0.687820       -18.7165
  17   1.0000      -0.670748       -18.2520
  18   1.0000      -0.645277       -17.5589
  19   1.0000      -0.584938       -15.9170
  20   1.0000      -0.544762       -14.8237
  21   1.0000      -0.498285       -13.5590
  22   1.0000      -0.488335       -13.2883
  23   1.0000      -0.482331       -13.1249
  24   1.0000      -0.466755       -12.7011
  25   1.0000      -0.449285       -12.2257
  26   1.0000      -0.424106       -11.5405
  27   1.0000      -0.413871       -11.2620
  28   1.0000      -0.406531       -11.0623
  29   1.0000      -0.398721       -10.8497
  30   1.0000      -0.396853       -10.7989
  31   1.0000      -0.389011       -10.5855
  32   1.0000      -0.377353       -10.2683
  33   1.0000      -0.373691       -10.1687
  34   1.0000      -0.350986        -9.5508
  35   1.0000      -0.345092        -9.3904
  36   1.0000      -0.335105        -9.1187
  37   1.0000      -0.331223        -9.0130
  38   1.0000      -0.311407        -8.4738
  39   1.0000      -0.306250        -8.3335
  40   1.0000      -0.297042        -8.0829
  41   1.0000      -0.231033        -6.2867
  42   0.0000      -0.021656        -0.5893
  43   0.0000       0.050880         1.3845
  44   0.0000       0.081869         2.2278
  45   0.0000       0.088263         2.4018
  46   0.0000       0.091986         2.5031

                 SPIN DOWN ORBITALS
  NO   OCC          E(Eh)            E(eV)
   0   1.0000     -19.124808      -520.4125
   1   1.0000     -10.265525      -279.3391
   2   1.0000     -10.192075      -277.3405
   3   1.0000     -10.191032      -277.3121
   4   1.0000     -10.186473      -277.1880
   5   1.0000     -10.183341      -277.1028
   6   1.0000     -10.181272      -277.0465
   7   1.0000     -10.177743      -276.9505
   8   1.0000     -10.171133      -276.7706
   9   1.0000     -10.170416      -276.7511
  10   1.0000     -10.167332      -276.6672
  11   1.0000      -1.008746       -27.4494
  12   1.0000      -0.894452       -24.3393
  13   1.0000      -0.769388       -20.9361
  14   1.0000      -0.766217       -20.8498
  15   1.0000      -0.746573       -20.3153
  16   1.0000      -0.687820       -18.7165
  17   1.0000      -0.670748       -18.2520
  18   1.0000      -0.645277       -17.5589
  19   1.0000      -0.584938       -15.9170
  20   1.0000      -0.544762       -14.8237
  21   1.0000      -0.498285       -13.5590
  22   1.0000      -0.488335       -13.2883
  23   1.0000      -0.482331       -13.1249
  24   1.0000      -0.466755       -12.7011
  25   1.0000      -0.449285       -12.2257
  26   1.0000      -0.424106       -11.5405
  27   1.0000      -0.413871       -11.2620
  28   1.0000      -0.406531       -11.0623
  29   1.0000      -0.398721       -10.8497
  30   1.0000      -0.396853       -10.7989
  31   1.0000      -0.389011       -10.5855
  32   1.0000      -0.377353       -10.2683
  33   1.0000      -0.373691       -10.1687
  34   1.0000      -0.350986        -9.5508
  35   1.0000      -0.345092        -9.3904
  36   1.0000      -0.335105        -9.1187
  37   1.0000      -0.331223        -9.0130
  38   1.0000      -0.311407        -8.4738
  39   1.0000      -0.306250        -8.3335
  40   1.0000      -0.297042        -8.0829
  41   1.0000      -0.231033        -6.2867
  42   0.0000      -0.021656        -0.5893
  43   0.0000       0.050880         1.3845
  44   0.0000       0.081869         2.2278
  45   0.0000       0.088263         2.4018
  46   0.0000       0.091986         2.5031

MULLIKEN ATOMIC CHARGES AND SPIN POPULATIONS
--------------------------------------------
   0 C :    0.117078    0.000000
   1 C :    0.096012   -0.000000
   2 C :   -0.035674   -0.000000
   3 C :   -0.234913   -0.000000
   4 C :    0.141495    0.000000
   5 C :    0.079527    0.000000
   6 C :   -0.279319    0.000000
   7 C :    0.110581   -0.000000
   8 C :    0.116982   -0.000000
   9 O :   -0.242822    0.000000
  10 C :    0.128308    0.000000
  11 H :    0.006505   -0.000000
  12 H :   -0.007455    0.000000
  13 H :   -0.004470    0.000000
  14 H :   -0.022190    0.000000
  15 H :   -0.064318   -0.000000
  16 H :    0.003829   -0.000000
  17 H :    0.009453   -0.000000
  18 H :    0.006489    0.000000
  19 H :    0.004108    0.000000
  20 H :    0.004582   -0.000000
  21 H :    0.006263   -0.000000
  22 H :    0.006960   -0.000000
  23 H :   -0.000150    0.000000
  24 H :    0.017370   -0.000000
  25 H :    0.027208    0.000000
  26 H :    0.008561   -0.000000
Sum of atomic charges         :    0.0000000

LOEWDIN ATOMIC CHARGES AND SPIN POPULATIONS
-------------------------------------------
   0 C :   -0.006215    0.000000
   1 C :   -0.017738    0.000000
   2 C :   -0.013300   -0.000000
   3 C :   -0.061235   -0.000000
   4 C :   -0.033716   -0.000000
   5 C :   -0.003140    0.000000
   6 C :   -0.042149   -0.000000
   7 C :   -0.039076   -0.000000
   8 C :   -0.036752   -0.000000
   9 O :   -0.062485    0.000000
  10 C :   -0.038251   -0.000000
  11 H :    0.024247   -0.000000
  12 H :    0.018553    0.000000
  13 H :    0.022089    0.000000
  14 H :    0.010830    0.000000
  15 H :    0.008144   -0.000000
  16 H :    0.023714   -0.000000
  17 H :    0.022452   -0.000000
  18 H :    0.019145    0.000000
  19 H :    0.019545   -0.000000
  20 H :    0.024179   -0.000000
  21 H :    0.022349   -0.000000
  22 H :    0.023506   -0.000000
  23 H :    0.021024    0.000000
  24 H :    0.028302   -0.000000
  25 H :    0.037800    0.000000
  26 H :    0.028178   -0.000000

  Mayer bond orders larger than 0.1
B(  0-C ,  1-C ) :   1.0727 B(  0-C ,  3-C ) :   1.0233 B(  0-C , 11-H ) :   0.9246
B(  0-C , 12-H ) :   0.9271 B(  1-C ,  2-C ) :   1.0517 B(  1-C , 13-H ) :   0.9241
B(  1-C , 14-H ) :   0.9353 B(  2-C ,  4-C ) :   1.0388 B(  2-C ,  6-C ) :   0.9543
B(  2-C , 15-H ) :   0.9249 B(  3-C ,  5-C ) :   0.9158 B(  3-C ,  6-C ) :   0.9486
B(  3-C , 10-C ) :   1.1047 B(  4-C ,  5-C ) :   0.9969 B(  4-C , 25-H ) :   0.9062
B(  4-C , 26-H ) :   0.9202 B(  5-C ,  9-O ) :   2.1818 B(  6-C ,  7-C ) :   1.0795
B(  6-C ,  8-C ) :   1.0779 B(  7-C , 16-H ) :   0.9516 B(  7-C , 17-H ) :   0.9489
B(  7-C , 18-H ) :   0.9445 B(  8-C , 19-H ) :   0.9428 B(  8-C , 20-H ) :   0.9528
B(  8-C , 21-H ) :   0.9478 B( 10-C , 22-H ) :   0.9465 B( 10-C , 23-H ) :   0.9428
B( 10-C , 24-H ) :   0.9453

FINAL SINGLE POINT ENERGY      -465.598569240344

DIPOLE MOMENT
-------------
                                X             Y             Z
Electronic contribution:      1.15945      -7.46831      -3.90075
Nuclear contribution   :     -1.90030       8.27039       4.48615
                        -----------------------------------------
Total Dipole Moment    :     -0.74085       0.80207       0.58540
                        -----------------------------------------
Magnitude (a.u.)       :      1.23890
Magnitude (Debye)      :      3.14902

                             ****ORCA TERMINATED NORMALLY****
TOTAL RUN TIME: 0 days 0 hours 18 minutes 27 seconds 163 msec
