                         Program Version 3.0.1 -  RELEASE  -
|  1> ! UKS B3LYP cc-pVDZ TightSCF Grid5
|  2> %coords
|  3>  CTyp   xyz
|  4>  Charge 1
|  5>  Mult   2
|  6>  Units  Angs
|  7>   coords
|  8>    C      -0.66699   3.93978   0.00000
|  9>    C       0.51504   4.68037   0.00000
| 10>    C       1.75010   4.00602   0.00000
| 11>    C       1.80453   2.60332   0.00000
| 12>    C       0.62497   1.82725   0.00000
| 13>    C       0.62835   0.36343   0.00000
| 14>    C       1.83310  -0.37283   0.00000
| 15>    C       1.83639  -1.76586   0.00000
| 16>    C       0.62835  -2.51934   0.00000
| 17>    C       0.66699  -3.93978   0.00000
| 18>    C      -0.51504  -4.68037   0.00000
| 19>    C      -1.75010  -4.00602   0.00000
| 20>    C      -1.80453  -2.60332   0.00000
| 21>    C      -0.62497  -1.82725   0.00000
| 22>    C      -0.62835  -0.36343   0.00000
| 23>    C      -1.83310   0.37283   0.00000
| 24>    C      -1.83639   1.76586   0.00000
| 25>    C      -0.62835   2.51934   0.00000
| 26>    H      -1.63057   4.44129   0.00000
| 27>    H       0.48432   5.76491   0.00000
| 28>    H       2.67553   4.57350   0.00000
| 29>    H       2.78075   2.13296   0.00000
| 30>    H       2.78656   0.14010   0.00000
| 31>    H       2.78477  -2.29635   0.00000
| 32>    H       1.63057  -4.44129   0.00000
| 33>    H      -0.48432  -5.76491   0.00000
| 34>    H      -2.67553  -4.57350   0.00000
| 35>    H      -2.78075  -2.13296   0.00000
| 36>    H      -2.78656  -0.14010   0.00000
| 37>    H      -2.78477   2.29635   0.00000
| 38>   end
| 39> end
| 40>
| 41> %eprnmr
| 42>  ori IGLO
| 43>  LocMet PM
| 44>  gtensor 1
| 45>  Nuclei = all C { aiso, adip, shift, fgrad }
| 46>  Nuclei = all H { aiso, adip, shift, fgrad }
| 47> end
| 48>
| 49>
| 50>                          ****END OF INPUT****

CARTESIAN COORDINATES (ANGSTROEM)
---------------------------------
  C     -0.666990    3.939780    0.000000
  C      0.515040    4.680370    0.000000
  C      1.750100    4.006020    0.000000
  C      1.804530    2.603320    0.000000
  C      0.624970    1.827250    0.000000
  C      0.628350    0.363430    0.000000
  C      1.833100   -0.372830    0.000000
  C      1.836390   -1.765860    0.000000
  C      0.628350   -2.519340    0.000000
  C      0.666990   -3.939780    0.000000
  C     -0.515040   -4.680370    0.000000
  C     -1.750100   -4.006020    0.000000
  C     -1.804530   -2.603320    0.000000
  C     -0.624970   -1.827250    0.000000
  C     -0.628350   -0.363430    0.000000
  C     -1.833100    0.372830    0.000000
  C     -1.836390    1.765860    0.000000
  C     -0.628350    2.519340    0.000000
  H     -1.630570    4.441290    0.000000
  H      0.484320    5.764910    0.000000
  H      2.675530    4.573500    0.000000
  H      2.780750    2.132960    0.000000
  H      2.786560    0.140100    0.000000
  H      2.784770   -2.296350    0.000000
  H      1.630570   -4.441290    0.000000
  H     -0.484320   -5.764910    0.000000
  H     -2.675530   -4.573500    0.000000
  H     -2.780750   -2.132960    0.000000
  H     -2.786560   -0.140100    0.000000
  H     -2.784770    2.296350    0.000000

 Total Charge           Charge          ....    1
 Multiplicity           Mult            ....    2
 Number of Electrons    NEL             ....  119
 Basis Dimension        Dim             ....  312

ORBITAL ENERGIES
----------------
                 SPIN UP ORBITALS
  NO   OCC          E(Eh)            E(eV)
   0   1.0000     -10.369016      -282.1553
   1   1.0000     -10.368704      -282.1468
   2   1.0000     -10.360102      -281.9127
   3   1.0000     -10.360101      -281.9127
   4   1.0000     -10.350600      -281.6541
   5   1.0000     -10.350599      -281.6541
   6   1.0000     -10.347958      -281.5822
   7   1.0000     -10.347958      -281.5822
   8   1.0000     -10.344838      -281.4974
   9   1.0000     -10.344837      -281.4973
  10   1.0000     -10.341077      -281.3950
  11   1.0000     -10.341077      -281.3950
  12   1.0000     -10.340861      -281.3891
  13   1.0000     -10.340861      -281.3891
  14   1.0000     -10.337055      -281.2856
  15   1.0000     -10.337055      -281.2856
  16   1.0000     -10.330388      -281.1042
  17   1.0000     -10.330388      -281.1042
  18   1.0000      -1.039415       -28.2839
  19   1.0000      -1.010505       -27.4972
  20   1.0000      -0.974844       -26.5269
  21   1.0000      -0.962017       -26.1778
  22   1.0000      -0.922274       -25.0964
  23   1.0000      -0.915432       -24.9102
  24   1.0000      -0.884607       -24.0714
  25   1.0000      -0.872022       -23.7289
  26   1.0000      -0.861250       -23.4358
  27   1.0000      -0.784599       -21.3500
  28   1.0000      -0.778528       -21.1848
  29   1.0000      -0.774053       -21.0631
  30   1.0000      -0.744057       -20.2468
  31   1.0000      -0.731980       -19.9182
  32   1.0000      -0.688112       -18.7245
  33   1.0000      -0.671398       -18.2697
  34   1.0000      -0.655856       -17.8468
  35   1.0000      -0.652627       -17.7589
  36   1.0000      -0.627729       -17.0814
  37   1.0000      -0.607671       -16.5356
  38   1.0000      -0.605155       -16.4671
  39   1.0000      -0.584472       -15.9043
  40   1.0000      -0.577944       -15.7267
  41   1.0000      -0.573793       -15.6137
  42   1.0000      -0.561850       -15.2887
  43   1.0000      -0.559215       -15.2170
  44   1.0000      -0.555402       -15.1132
  45   1.0000      -0.545279       -14.8378
  46   1.0000      -0.540688       -14.7129
  47   1.0000      -0.524213       -14.2646
  48   1.0000      -0.522315       -14.2129
  49   1.0000      -0.497822       -13.5464
  50   1.0000      -0.488280       -13.2868
  51   1.0000      -0.481919       -13.1137
  52   1.0000      -0.478259       -13.0141
  53   1.0000      -0.472877       -12.8676
  54   1.0000      -0.469674       -12.7805
  55   1.0000      -0.434306       -11.8181
  56   1.0000      -0.419146       -11.4055
  57   1.0000      -0.389332       -10.5943
  58   1.0000      -0.372562       -10.1379
  59   1.0000      -0.358982        -9.7684
  60   0.0000      -0.214666        -5.8414
  61   0.0000      -0.183339        -4.9889
  62   0.0000      -0.174026        -4.7355
  63   0.0000      -0.131946        -3.5904
  64   0.0000      -0.127010        -3.4561

                 SPIN DOWN ORBITALS
  NO   OCC          E(Eh)            E(eV)
   0   1.0000     -10.367390      -282.1110
   1   1.0000     -10.367090      -282.1029
   2   1.0000     -10.356888      -281.8252
   3   1.0000     -10.356886      -281.8252
   4   1.0000     -10.350689      -281.6566
   5   1.0000     -10.350688      -281.6565
   6   1.0000     -10.347975      -281.5827
   7   1.0000     -10.347975      -281.5827
   8   1.0000     -10.345583      -281.5176
   9   1.0000     -10.345581      -281.5176
  10   1.0000     -10.339912      -281.3633
  11   1.0000     -10.339912      -281.3633
  12   1.0000     -10.339183      -281.3435
  13   1.0000     -10.339183      -281.3435
  14   1.0000     -10.336055      -281.2583
  15   1.0000     -10.336054      -281.2583
  16   1.0000     -10.330699      -281.1126
  17   1.0000     -10.330699      -281.1126
  18   1.0000      -1.036107       -28.1939
  19   1.0000      -1.008350       -27.4386
  20   1.0000      -0.971647       -26.4399
  21   1.0000      -0.957584       -26.0572
  22   1.0000      -0.917541       -24.9675
  23   1.0000      -0.913795       -24.8656
  24   1.0000      -0.880932       -23.9714
  25   1.0000      -0.871466       -23.7138
  26   1.0000      -0.854203       -23.2440
  27   1.0000      -0.781080       -21.2543
  28   1.0000      -0.776667       -21.1342
  29   1.0000      -0.771862       -21.0034
  30   1.0000      -0.741867       -20.1872
  31   1.0000      -0.729828       -19.8596
  32   1.0000      -0.686362       -18.6768
  33   1.0000      -0.670086       -18.2340
  34   1.0000      -0.654291       -17.8042
  35   1.0000      -0.650275       -17.6949
  36   1.0000      -0.626072       -17.0363
  37   1.0000      -0.606621       -16.5070
  38   1.0000      -0.603804       -16.4304
  39   1.0000      -0.584066       -15.8932
  40   1.0000      -0.576810       -15.6958
  41   1.0000      -0.572440       -15.5769
  42   1.0000      -0.560525       -15.2527
  43   1.0000      -0.553599       -15.0642
  44   1.0000      -0.550361       -14.9761
  45   1.0000      -0.543891       -14.8000
  46   1.0000      -0.539259       -14.6740
  47   1.0000      -0.521503       -14.1908
  48   1.0000      -0.518250       -14.1023
  49   1.0000      -0.496656       -13.5147
  50   1.0000      -0.487822       -13.2743
  51   1.0000      -0.476828       -12.9752
  52   1.0000      -0.472738       -12.8639
  53   1.0000      -0.469046       -12.7634
  54   1.0000      -0.458316       -12.4714
  55   1.0000      -0.418831       -11.3970
  56   1.0000      -0.414951       -11.2914
  57   1.0000      -0.374306       -10.1854
  58   1.0000      -0.371903       -10.1200
  59   0.0000      -0.309081        -8.4105
  60   0.0000      -0.198049        -5.3892
  61   0.0000      -0.178104        -4.8465
  62   0.0000      -0.164088        -4.4651
  63   0.0000      -0.122140        -3.3236

MULLIKEN ATOMIC CHARGES AND SPIN POPULATIONS
--------------------------------------------
   0 C :    0.052437    0.131441
   1 C :    0.076899   -0.022532
   2 C :    0.092394    0.069303
   3 C :   -0.014789    0.073882
   4 C :    0.067185   -0.016123
   5 C :    0.077451    0.106733
   6 C :   -0.003662    0.006594
   7 C :    0.091067    0.221732
   8 C :    0.034411   -0.051454
   9 C :    0.052438    0.131439
  10 C :    0.076898   -0.022530
  11 C :    0.092394    0.069302
  12 C :   -0.014790    0.073884
  13 C :    0.067186   -0.016123
  14 C :    0.077449    0.106734
  15 C :   -0.003662    0.006594
  16 C :    0.091067    0.221733
  17 C :    0.034411   -0.051456
  18 H :    0.000546   -0.005062
  19 H :    0.015156    0.000490
  20 H :    0.014690   -0.003215
  21 H :   -0.005360   -0.002598
  22 H :   -0.003574   -0.000417
  23 H :    0.005150   -0.008775
  24 H :    0.000546   -0.005062
  25 H :    0.015156    0.000490
  26 H :    0.014690   -0.003216
  27 H :   -0.005360   -0.002598
  28 H :   -0.003574   -0.000416
  29 H :    0.005150   -0.008774
Sum of atomic charges         :    1.0000000

LOEWDIN ATOMIC CHARGES AND SPIN POPULATIONS
-------------------------------------------
   0 C :    0.045716    0.106804
   1 C :    0.015121   -0.006749
   2 C :    0.034484    0.062462
   3 C :    0.028863    0.061035
   4 C :   -0.004664    0.002506
   5 C :    0.033427    0.096744
   6 C :    0.017853    0.018610
   7 C :    0.078247    0.183249
   8 C :   -0.021697   -0.024917
   9 C :    0.045716    0.106804
  10 C :    0.015121   -0.006749
  11 C :    0.034484    0.062462
  12 C :    0.028863    0.061035
  13 C :   -0.004664    0.002506
  14 C :    0.033427    0.096744
  15 C :    0.017853    0.018610
  16 C :    0.078247    0.183249
  17 C :   -0.021697   -0.024917
  18 H :    0.044966    0.000025
  19 H :    0.048046   -0.000164
  20 H :    0.048339    0.000014
  21 H :    0.038607    0.000213
  22 H :    0.042535   -0.000061
  23 H :    0.050157    0.000228
  24 H :    0.044966    0.000025
  25 H :    0.048046   -0.000164
  26 H :    0.048339    0.000014
  27 H :    0.038607    0.000213
  28 H :    0.042535   -0.000061
  29 H :    0.050157    0.000228

  Mayer bond orders larger than 0.1
B(  0-C ,  1-C ) :   1.4521 B(  0-C , 17-C ) :   1.3186 B(  0-C , 18-H ) :   0.9357
B(  1-C ,  2-C ) :   1.4030 B(  1-C , 19-H ) :   0.9414 B(  2-C ,  3-C ) :   1.4310
B(  2-C , 20-H ) :   0.9343 B(  3-C ,  4-C ) :   1.4175 B(  3-C , 21-H ) :   0.9247
B(  4-C ,  5-C ) :   1.0906 B(  4-C , 17-C ) :   1.3111 B(  5-C ,  6-C ) :   1.4015
B(  5-C , 14-C ) :   1.2391 B(  6-C ,  7-C ) :   1.4209 B(  6-C , 22-H ) :   0.9266
B(  7-C ,  8-C ) :   1.2488 B(  7-C , 23-H ) :   0.9319 B(  8-C ,  9-C ) :   1.3186
B(  8-C , 13-C ) :   1.3111 B(  9-C , 10-C ) :   1.4521 B(  9-C , 24-H ) :   0.9357
B( 10-C , 11-C ) :   1.4030 B( 10-C , 25-H ) :   0.9414 B( 11-C , 12-C ) :   1.4310
B( 11-C , 26-H ) :   0.9343 B( 12-C , 13-C ) :   1.4175 B( 12-C , 27-H ) :   0.9247
B( 13-C , 14-C ) :   1.0906 B( 14-C , 15-C ) :   1.4015 B( 15-C , 16-C ) :   1.4209
B( 15-C , 28-H ) :   0.9266 B( 16-C , 17-C ) :   1.2488 B( 16-C , 29-H ) :   0.9319

FINAL SINGLE POINT ENERGY      -692.522051265677

DIPOLE MOMENT
-------------
                                X             Y             Z
Electronic contribution:      0.00000      -0.00000      -0.00000
Nuclear contribution   :      0.00000       0.00000       0.00000
                        -----------------------------------------
Total Dipole Moment    :      0.00000      -0.00000      -0.00000
                        -----------------------------------------
Magnitude (a.u.)       :      0.00000
Magnitude (Debye)      :      0.00000

                             ****ORCA TERMINATED NORMALLY****
TOTAL RUN TIME: 0 days 0 hours 35 minutes 45 seconds 289 msec
